# LAMMPS data file for replicating chromosomes formed of rigid body monomers

8112		atoms
8		atom types
5550		ellipsoids
5501		bonds
2		bond types
11002		angles
4		angle types


-1140	1140	xlo xhi
-1140	1140	ylo yhi
-1140	1140	zlo zhi

Atoms # atom-ID atom-type x y z molecule-ID ellipsoid-flag density

1	5	93.0958  	664.505  	193.358  	-1	1	1
2	3	92.2024  	634.699  	203.352  	-1	1	1
3	3	90.2752  	608.474  	218.385  	-1	1	1
4	3	72.094  	583.428  	217.658  	-1	1	1
5	3	56.6758  	607.191  	208.607  	-1	1	1
6	3	60.5714  	631.638  	226.789  	-1	1	1
7	3	83.9407  	642.544  	244.524  	-1	1	1
8	3	105.528  	644.628  	266.115  	-1	1	1
9	3	126.016  	645.359  	288.048  	-1	1	1
10	3	148.106  	664.532  	297.748  	-1	1	1
11	3	160.522  	687.239  	281.164  	-1	1	1
12	3	155.529  	696.885  	253.318  	-1	1	1
13	3	169.594  	687.192  	227.67  	-1	1	1
14	3	188.704  	670.349  	211.648  	-1	1	1
15	3	200.31  	648.495  	229.025  	-1	1	1
16	3	207.69  	623.636  	246.208  	-1	1	1
17	3	221.347  	602.877  	265.75  	-1	1	1
18	3	236.234  	577.386  	273.948  	-1	1	1
19	3	248.68  	551.844  	262.317  	-1	1	1
20	3	249.007  	534.306  	238.557  	-1	1	1
21	3	250.957  	519.476  	212.909  	-1	1	1
22	3	264.775  	505.873  	189.006  	-1	1	1
23	3	270.478  	535.372  	187.099  	-1	1	1
24	3	277.825  	562.56  	175.703  	-1	1	1
25	3	277.493  	568.479  	146.34  	-1	1	1
26	3	268.21  	565.07  	117.473  	-1	1	1
27	3	255.938  	578.893  	94.6204  	-1	1	1
28	3	233.31  	600.673  	96.6125  	-1	1	1
29	3	227.456  	614.281  	122.634  	-1	1	1
30	3	225.642  	632.993  	146.378  	-1	1	1
31	3	226.715  	645.592  	174.256  	-1	1	1
32	3	239.442  	652.675  	202.104  	-1	1	1
33	3	261.533  	673.775  	202.112  	-1	1	1
34	3	273.174  	657.799  	177.856  	-1	1	1
35	3	294.432  	637.17  	173.093  	-1	1	1
36	3	321.813  	646.876  	179.435  	-1	1	1
37	3	332.783  	657.423  	206.751  	-1	1	1
38	3	332.922  	669.921  	234.597  	-1	1	1
39	3	336.163  	669.209  	264.7  	-1	1	1
40	3	353.689  	645.459  	267.809  	-1	1	1
41	3	360.548  	627.197  	244.786  	-1	1	1
42	3	354.822  	613.729  	217.819  	-1	1	1
43	3	356.228  	600.44  	189.292  	-1	1	1
44	3	372.036  	590.281  	164.977  	-1	1	1
45	3	389.687  	597.19  	140.069  	-1	1	1
46	3	393.149  	627.318  	137.352  	-1	1	1
47	3	407.922  	644.713  	157.057  	-1	1	1
48	3	426.528  	651.695  	180.237  	-1	1	1
49	3	446.193  	643.569  	202.128  	-1	1	1
50	3	451.145  	630.236  	229.66  	-1	1	1
51	3	458.841  	612.225  	253.04  	-1	1	1
52	3	459.17  	594.161  	276.678  	-1	1	1
53	3	475.858  	575.041  	261.372  	-1	1	1
54	3	471.633  	547.314  	248.231  	-1	1	1
55	3	463.506  	545.154  	218.661  	-1	1	1
56	3	438.818  	530.828  	207.008  	-1	1	1
57	3	427.703  	501.543  	203.349  	-1	1	1
58	3	406.125  	481.703  	214.835  	-1	1	1
59	3	380.447  	489.802  	230.669  	-1	1	1
60	3	361.879  	505.166  	249.969  	-1	1	1
61	3	361.6  	534.846  	258.264  	-1	1	1
62	3	371.385  	562.503  	249.393  	-1	1	1
63	3	382.034  	586.197  	233.06  	-1	1	1
64	3	393.025  	613.665  	223.771  	-1	1	1
65	3	402.145  	637.557  	240.923  	-1	1	1
66	3	398.78  	630.262  	271.11  	-1	1	1
67	3	397.12  	604.413  	287.543  	-1	1	1
68	3	393.412  	584.312  	310.403  	-1	1	1
69	3	409.309  	566.784  	290.897  	-1	1	1
70	3	412.486  	556.789  	261.958  	-1	1	1
71	3	406.71  	554.476  	232.675  	-1	1	1
72	3	385.107  	552.454  	212.139  	-1	1	1
73	3	359.54  	551.753  	195.089  	-1	1	1
74	3	335.577  	564.41  	181.693  	-1	1	1
75	3	344.479  	544.516  	161.097  	-1	1	1
76	3	367.835  	534.13  	147.661  	-1	1	1
77	3	393.76  	547.016  	133.125  	-1	1	1
78	3	404.196  	564.722  	110.379  	-1	1	1
79	3	401.513  	587.522  	90.0111  	-1	1	1
80	3	391.51  	609.824  	71.7279  	-1	1	1
81	3	368.392  	628.129  	60.7873  	-1	1	1
82	3	351.951  	645.461  	42.6987  	-1	1	1
83	3	330.618  	655.363  	21.5978  	-1	1	1
84	3	303.121  	667.158  	13.4655  	-1	1	1
85	3	273.587  	671.633  	16.2033  	-1	1	1
86	3	253.745  	675.873  	39.5618  	-1	1	1
87	3	231.728  	690.904  	55.6869  	-1	1	1
88	3	202.856  	681.817  	57.3862  	-1	1	1
89	3	192.265  	664.004  	35.9673  	-1	1	1
90	3	189.092  	649.137  	10.3667  	-1	1	1
91	3	199.618  	649.199  	-20.3519  	-1	1	1
92	3	192.719  	674.437  	-33.1451  	-1	1	1
93	3	186.265  	702.254  	-41.054  	-1	1	1
94	3	191.579  	731.438  	-41.8026  	-1	1	1
95	3	211.349  	753.537  	-47.6315  	-1	1	1
96	3	210.77  	785.088  	-48.4749  	-1	1	1
97	3	220.869  	814.4  	-56.2239  	-1	1	1
98	3	224.498  	790.548  	-77.9173  	-1	1	1
99	3	224.57  	762.048  	-91.8144  	-1	1	1
100	3	233.827  	731.704  	-89.5243  	-1	1	1
101	3	249.536  	709.698  	-76.8745  	-1	1	1
102	3	266.725  	691.378  	-58.3728  	-1	1	1
103	3	292.369  	683.424  	-43.8181  	-1	1	1
104	3	306.958  	654.915  	-40.0535  	-1	1	1
105	3	284.95  	640.957  	-57.6078  	-1	1	1
106	3	265.269  	648.662  	-79.7794  	-1	1	1
107	3	262.628  	667.165  	-102.952  	-1	1	1
108	3	268.083  	678.371  	-131.016  	-1	1	1
109	3	287.036  	691.802  	-153.269  	-1	1	1
110	3	312.721  	707.503  	-161.054  	-1	1	1
111	3	328.093  	720.311  	-138.818  	-1	1	1
112	3	307.154  	726.382  	-117.413  	-1	1	1
113	3	284.895  	737.555  	-100.392  	-1	1	1
114	3	283.77  	751.138  	-72.6945  	-1	1	1
115	3	313.996  	749.301  	-77.1486  	-1	1	1
116	3	338.279  	740.165  	-90.1591  	-1	1	1
117	3	358.844  	722.283  	-104.843  	-1	1	1
118	3	386.086  	718.432  	-115.266  	-1	1	1
119	3	414.4  	719.717  	-126.586  	-1	1	1
120	3	439.139  	723.524  	-142.344  	-1	1	1
121	3	446.892  	727.09  	-170.849  	-1	1	1
122	3	436.349  	740.143  	-197.099  	-1	1	1
123	3	428.02  	737.074  	-225.765  	-1	1	1
124	3	403.453  	730.116  	-241.554  	-1	1	1
125	3	385.615  	717.12  	-261.8  	-1	1	1
126	3	362.802  	698.597  	-254.01  	-1	1	1
127	3	364.537  	689.251  	-225.31  	-1	1	1
128	3	384.955  	689.665  	-202.573  	-1	1	1
129	3	410.308  	680.268  	-186.997  	-1	1	1
130	3	431.322  	657.894  	-186.664  	-1	1	1
131	3	446.942  	632.585  	-193.109  	-1	1	1
132	3	458.482  	609.38  	-207.517  	-1	1	1
133	3	453.992  	592.784  	-232.11  	-1	1	1
134	3	456.941  	572.052  	-254.385  	-1	1	1
135	3	450.351  	554.676  	-279.522  	-1	1	1
136	3	439.069  	527.23  	-290.372  	-1	1	1
137	3	426.612  	498.927  	-288.131  	-1	1	1
138	3	400.863  	491.15  	-274.363  	-1	1	1
139	3	380.994  	503.545  	-256.12  	-1	1	1
140	3	400.876  	520.651  	-240.9  	-1	1	1
141	3	430.344  	525.343  	-244.784  	-1	1	1
142	3	459.824  	532.539  	-252.214  	-1	1	1
143	3	486.767  	546.072  	-254.793  	-1	1	1
144	3	508.119  	565.987  	-261.4  	-1	1	1
145	3	528.192  	590.766  	-261.42  	-1	1	1
146	3	536.505  	602.913  	-234.823  	-1	1	1
147	3	540.402  	588.252  	-209.275  	-1	1	1
148	3	542.178  	558.156  	-204.836  	-1	1	1
149	3	543.238  	527.587  	-209.611  	-1	1	1
150	3	537.574  	497.588  	-213.825  	-1	1	1
151	3	526.561  	470.734  	-219.491  	-1	1	1
152	3	524.918  	443.054  	-205.149  	-1	1	1
153	3	534.437  	433.635  	-179.088  	-1	1	1
154	3	564.876  	433.765  	-178.814  	-1	1	1
155	3	595.026  	427.255  	-183.742  	-1	1	1
156	3	608.229  	399.959  	-191.682  	-1	1	1
157	3	602.711  	370.559  	-199.454  	-1	1	1
158	3	596.935  	339.919  	-195.749  	-1	1	1
159	3	605.439  	324.409  	-170.765  	-1	1	1
160	3	602.3  	314.422  	-142.47  	-1	1	1
161	3	600.034  	325.774  	-113.998  	-1	1	1
162	3	604.629  	347.493  	-94.2151  	-1	1	1
163	3	620.797  	369.976  	-82.8296  	-1	1	1
164	3	638.066  	381.543  	-60.5091  	-1	1	1
165	3	615.922  	384.663  	-40.5079  	-1	1	1
166	3	598.241  	402.105  	-23.1713  	-1	1	1
167	3	575.604  	421.689  	-22.8939  	-1	1	1
168	3	552.995  	440.159  	-20.5775  	-1	1	1
169	3	528.634  	450.771  	-3.75041  	-1	1	1
170	3	512.965  	440.636  	21.8645  	-1	1	1
171	3	519.038  	446.141  	51.036  	-1	1	1
172	3	535.142  	468.873  	64.3768  	-1	1	1
173	3	553.481  	492.694  	72.5758  	-1	1	1
174	3	562.528  	521.463  	73.4126  	-1	1	1
175	3	575.227  	543.125  	54.6408  	-1	1	1
176	3	565.618  	566.168  	37.9078  	-1	1	1
177	3	566.828  	588.172  	16.5342  	-1	1	1
178	3	564.913  	612.27  	-2.7066  	-1	1	1
179	3	560.865  	633.471  	-26.0927  	-1	1	1
180	3	576.917  	609.104  	-37.8128  	-1	1	1
181	3	595.07  	586.852  	-47.95  	-1	1	1
182	3	614.436  	563.875  	-52.933  	-1	1	1
183	3	626.785  	542.652  	-34.2626  	-1	1	1
184	3	635.742  	538.386  	-4.41905  	-1	1	1
185	3	642.142  	548.226  	23.4875  	-1	1	1
186	3	634.942  	551.289  	52.5301  	-1	1	1
187	3	625.815  	577.313  	41.5527  	-1	1	1
188	3	606.561  	601.083  	44.332  	-1	1	1
189	3	579.817  	605.627  	57.1849  	-1	1	1
190	3	551.135  	602.694  	64.6308  	-1	1	1
191	3	529.603  	584.062  	76.2264  	-1	1	1
192	3	505.694  	569.103  	87.613  	-1	1	1
193	3	505.676  	542.593  	101.555  	-1	1	1
194	3	524.479  	519.631  	111.862  	-1	1	1
195	3	547.121  	515.932  	132.115  	-1	1	1
196	3	557.68  	510.098  	160.943  	-1	1	1
197	3	569.194  	507.963  	189.387  	-1	1	1
198	3	571.615  	496.957  	217.374  	-1	1	1
199	3	570.913  	500.25  	249.323  	-1	1	1
200	3	559.011  	500.984  	278.027  	-1	1	1
201	3	551.03  	498.515  	307.561  	-1	1	1
202	3	543.828  	488.962  	336.972  	-1	1	1
203	3	542.063  	486.274  	366.687  	-1	1	1
204	3	516.524  	479.909  	383.86  	-1	1	1
205	3	487.711  	471.78  	393.773  	-1	1	1
206	3	465.999  	452.246  	400.653  	-1	1	1
207	3	449.599  	427.931  	393.832  	-1	1	1
208	3	440.327  	416.666  	367.13  	-1	1	1
209	3	437.492  	416.586  	336.129  	-1	1	1
210	3	449.717  	431.367  	312.489  	-1	1	1
211	3	463.377  	448.22  	290.897  	-1	1	1
212	3	487.138  	461.623  	276.969  	-1	1	1
213	3	516.854  	468.353  	274.297  	-1	1	1
214	3	537.057  	464.788  	296.805  	-1	1	1
215	3	541.994  	451.6  	324.514  	-1	1	1
216	3	546.257  	439.163  	352.078  	-1	1	1
217	3	549.9  	433.783  	382.641  	-1	1	1
218	3	559.317  	420.808  	407.834  	-1	1	1
219	3	575.58  	399.332  	422.044  	-1	1	1
220	3	601.138  	385.903  	411.791  	-1	1	1
221	3	612.217  	375.89  	385.011  	-1	1	1
222	3	603.026  	358.035  	361.036  	-1	1	1
223	3	590.518  	339.576  	339.86  	-1	1	1
224	3	568.255  	321.861  	330.377  	-1	1	1
225	3	548.89  	302.893  	317.991  	-1	1	1
226	3	519.631  	312.558  	316.466  	-1	1	1
227	3	506.994  	340.209  	314.256  	-1	1	1
228	3	508.021  	370.82  	318.166  	-1	1	1
229	3	511.798  	387.054  	343.445  	-1	1	1
230	3	520.012  	393.931  	372.175  	-1	1	1
231	3	525.282  	404.516  	399.885  	-1	1	1
232	3	532.404  	409.787  	430.234  	-1	1	1
233	3	519.66  	409.494  	457.75  	-1	1	1
234	3	502.414  	413.611  	481.494  	-1	1	1
235	3	474.289  	427.45  	481.038  	-1	1	1
236	3	461.108  	448.833  	463.926  	-1	1	1
237	3	455.712  	470.203  	443.694  	-1	1	1
238	3	446.367  	499.318  	437.195  	-1	1	1
239	3	423.622  	516.479  	449.885  	-1	1	1
240	3	408.112  	497.816  	468.334  	-1	1	1
241	3	391.091  	480.703  	486.885  	-1	1	1
242	3	381.531  	452.477  	499.361  	-1	1	1
243	3	365.929  	426.789  	507.367  	-1	1	1
244	3	344.313  	403.868  	503.783  	-1	1	1
245	3	320.173  	390.89  	489.495  	-1	1	1
246	3	295.967  	403.284  	476.104  	-1	1	1
247	3	285.981  	431.355  	481.551  	-1	1	1
248	3	266.505  	423.925  	459.527  	-1	1	1
249	3	262.701  	404.612  	436.778  	-1	1	1
250	3	261.741  	429.643  	418.51  	-1	1	1
251	3	262.167  	430.103  	387.896  	-1	1	1
252	3	269.058  	426.483  	358.114  	-1	1	1
253	3	290.701  	414.063  	340.341  	-1	1	1
254	3	317.132  	399.89  	345.18  	-1	1	1
255	3	337.139  	396.142  	367.612  	-1	1	1
256	3	356.019  	408.166  	388.407  	-1	1	1
257	3	347.17  	431.225  	404.483  	-1	1	1
258	3	330.693  	454.767  	414.367  	-1	1	1
259	3	320.979  	483.482  	412.589  	-1	1	1
260	3	323.016  	512.855  	415.396  	-1	1	1
261	3	330.705  	521.894  	442.918  	-1	1	1
262	3	331.475  	507.856  	470.192  	-1	1	1
263	3	325.224  	481.319  	482.248  	-1	1	1
264	3	330.226  	451.61  	482.296  	-1	1	1
265	3	330.724  	422.043  	473.217  	-1	1	1
266	3	350.493  	404.46  	456.232  	-1	1	1
267	3	373.066  	387.257  	444.579  	-1	1	1
268	3	398.854  	371.726  	440.556  	-1	1	1
269	3	430.277  	365.798  	445.05  	-1	1	1
270	3	461.077  	361.24  	450.925  	-1	1	1
271	3	472.849  	369.881  	477.581  	-1	1	1
272	3	489.884  	374.498  	502.839  	-1	1	1
273	3	512.291  	368.718  	521.571  	-1	1	1
274	3	539.861  	366.307  	506.376  	-1	1	1
275	3	529.626  	354.227  	479.942  	-1	1	1
276	3	518.149  	352.05  	451.596  	-1	1	1
277	3	497.496  	349.691  	429.91  	-1	1	1
278	3	480.012  	352.104  	405.265  	-1	1	1
279	3	463.955  	352.663  	379.746  	-1	1	1
280	3	469.985  	359.174  	349.156  	-1	1	1
281	3	496.278  	354.582  	364.784  	-1	1	1
282	3	519.279  	347.618  	384.171  	-1	1	1
283	3	544.536  	332.782  	391.537  	-1	1	1
284	3	548.254  	306.708  	375.507  	-1	1	1
285	3	532.05  	286.388  	359.11  	-1	1	1
286	3	518.249  	268.712  	337.573  	-1	1	1
287	3	510.783  	239.98  	328.59  	-1	1	1
288	3	520.635  	213.485  	338.448  	-1	1	1
289	3	539.059  	197.485  	358.608  	-1	1	1
290	3	568.402  	199.619  	367.287  	-1	1	1
291	3	593.936  	215.878  	373.692  	-1	1	1
292	3	620.925  	221.276  	360.513  	-1	1	1
293	3	647.117  	216.356  	346.584  	-1	1	1
294	3	671.709  	202.556  	331.439  	-1	1	1
295	3	687.986  	181.305  	319.017  	-1	1	1
296	3	688.789  	188.191  	288.844  	-1	1	1
297	3	695.673  	176.525  	260.699  	-1	1	1
298	3	713.543  	161.856  	242.02  	-1	1	1
299	3	731.301  	144.422  	223.299  	-1	1	1
300	3	722.595  	116.643  	212.45  	-1	1	1
301	3	711.803  	88.0704  	207.547  	-1	1	1
302	3	736.481  	69.116  	199.249  	-1	1	1
303	3	760.802  	54.0474  	186.586  	-1	1	1
304	3	790.259  	50.2253  	176.262  	-1	1	1
305	3	819.272  	50.4014  	184.77  	-1	1	1
306	3	842.874  	64.1393  	199.376  	-1	1	1
307	3	842.883  	91.7232  	212.703  	-1	1	1
308	3	822.103  	112.841  	220.735  	-1	1	1
309	3	791.11  	109.531  	219.032  	-1	1	1
310	3	768.719  	90.2945  	225.224  	-1	1	1
311	3	743.304  	76.0373  	233.296  	-1	1	1
312	3	713.895  	66.1601  	238.896  	-1	1	1
313	3	687.538  	71.1889  	252.314  	-1	1	1
314	3	681.351  	75.7341  	280.851  	-1	1	1
315	3	674.994  	87.2633  	309.249  	-1	1	1
316	3	685.149  	58.8556  	318.182  	-1	1	1
317	3	696.327  	30.1844  	318.319  	-1	1	1
318	3	697.11  	0.466495  	319.668  	-1	1	1
319	3	684.138  	-20.9852  	301.746  	-1	1	1
320	3	680.225  	-46.716  	287.434  	-1	1	1
321	3	682.316  	-67.7417  	309.553  	-1	1	1
322	3	698.68  	-62.4318  	334.046  	-1	1	1
323	3	714.987  	-40.3965  	347.196  	-1	1	1
324	3	729.953  	-18.6489  	330.62  	-1	1	1
325	3	738.639  	0.0157117  	308.942  	-1	1	1
326	3	724.625  	-0.224433  	282.384  	-1	1	1
327	3	712.276  	-17.129  	259.075  	-1	1	1
328	3	716.469  	-37.2348  	236.69  	-1	1	1
329	3	723.219  	-68.2212  	235.707  	-1	1	1
330	3	715.347  	-94.2693  	250.695  	-1	1	1
331	3	686.886  	-96.2551  	261.521  	-1	1	1
332	3	665.62  	-77.6612  	271.291  	-1	1	1
333	3	649.29  	-58.9056  	289.438  	-1	1	1
334	3	644.056  	-50.6136  	318.737  	-1	1	1
335	3	646.277  	-45.7338  	347.699  	-1	1	1
336	3	647.267  	-37.1513  	377.439  	-1	1	1
337	3	654.171  	-24.7846  	404.093  	-1	1	1
338	3	647.627  	3.87908  	400.198  	-1	1	1
339	3	621.587  	-12.0212  	396.615  	-1	1	1
340	3	596.201  	-29.0886  	397.646  	-1	1	1
341	3	587.118  	-57.1729  	409.03  	-1	1	1
342	3	596.387  	-86.2071  	407.211  	-1	1	1
343	3	609.722  	-104.865  	387.069  	-1	1	1
344	3	631.476  	-119.921  	373.026  	-1	1	1
345	3	656.231  	-121.438  	355.801  	-1	1	1
346	3	679.945  	-128.701  	338.043  	-1	1	1
347	3	696.111  	-133.497  	311.677  	-1	1	1
348	3	699.324  	-147.091  	284.679  	-1	1	1
349	3	693.511  	-158.401  	257.177  	-1	1	1
350	3	678.89  	-169.908  	233.568  	-1	1	1
351	3	655.909  	-184.667  	248.333  	-1	1	1
352	3	653.132  	-197.309  	277.475  	-1	1	1
353	3	668.213  	-186.456  	302.056  	-1	1	1
354	3	691.208  	-186.671  	321.161  	-1	1	1
355	3	697.884  	-201.956  	347.279  	-1	1	1
356	3	693.951  	-220.544  	371.078  	-1	1	1
357	3	680.296  	-245.498  	361.154  	-1	1	1
358	3	673.135  	-266.687  	340.218  	-1	1	1
359	3	673.917  	-276.436  	311.487  	-1	1	1
360	3	680.555  	-258.251  	287.623  	-1	1	1
361	3	684.853  	-229.801  	276.085  	-1	1	1
362	3	688.962  	-202.604  	261.906  	-1	1	1
363	3	710.932  	-187.018  	249.245  	-1	1	1
364	3	734.529  	-172.278  	235.348  	-1	1	1
365	3	752.144  	-152.57  	219.98  	-1	1	1
366	3	768.186  	-135.438  	201.605  	-1	1	1
367	3	749.914  	-131.426  	178.088  	-1	1	1
368	3	723.437  	-144.816  	169.689  	-1	1	1
369	3	694.375  	-151.487  	160.723  	-1	1	1
370	3	667.885  	-159.306  	147.864  	-1	1	1
371	3	649.662  	-173.123  	126.523  	-1	1	1
372	3	645.511  	-174.241  	97.1528  	-1	1	1
373	3	632.825  	-178.233  	68.7531  	-1	1	1
374	3	617.399  	-168.311  	42.6062  	-1	1	1
375	3	601.641  	-143.977  	31.7188  	-1	1	1
376	3	602.741  	-113.503  	35.2556  	-1	1	1
377	3	599.633  	-85.0462  	24.1404  	-1	1	1
378	3	600.717  	-68.8519  	-2.24321  	-1	1	1
379	3	609.12  	-63.2635  	-33.2404  	-1	1	1
380	3	632.774  	-82.2206  	-39.9189  	-1	1	1
381	3	651.937  	-101.628  	-23.6423  	-1	1	1
382	3	669.274  	-123.195  	-11.0858  	-1	1	1
383	3	689.493  	-140.41  	5.77344  	-1	1	1
384	3	714.962  	-155.301  	-2.96677  	-1	1	1
385	3	741.939  	-147.868  	-13.8092  	-1	1	1
386	3	764.285  	-132.499  	-26.0781  	-1	1	1
387	3	771.964  	-119.008  	-52.6634  	-1	1	1
388	3	771.494  	-103.966  	-79.1622  	-1	1	1
389	3	753.951  	-90.1116  	-99.0686  	-1	1	1
390	3	769.163  	-108.443  	-119.412  	-1	1	1
391	3	791.775  	-117.179  	-139.324  	-1	1	1
392	3	812.278  	-138.726  	-135.39  	-1	1	1
393	3	810.751  	-156.784  	-111.122  	-1	1	1
394	3	788.79  	-173.202  	-98.4848  	-1	1	1
395	3	757.86  	-180.826  	-96.9644  	-1	1	1
396	3	726.003  	-179.608  	-98.6493  	-1	1	1
397	3	698.859  	-169.004  	-108.932  	-1	1	1
398	3	673.225  	-153.299  	-112.141  	-1	1	1
399	3	664.76  	-124.38  	-119.88  	-1	1	1
400	3	674.533  	-94.8603  	-125.644  	-1	1	1
401	3	692.454  	-70.6416  	-132.544  	-1	1	1
402	3	698.04  	-56.2385  	-158.185  	-1	1	1
403	3	700.251  	-63.5259  	-188.146  	-1	1	1
404	3	683.721  	-76.7674  	-211.409  	-1	1	1
405	3	666.796  	-88.0616  	-234.166  	-1	1	1
406	3	658.139  	-103.366  	-260.335  	-1	1	1
407	3	656.425  	-115.536  	-287.881  	-1	1	1
408	3	651.188  	-114.097  	-318.489  	-1	1	1
409	3	626.082  	-101.101  	-303.88  	-1	1	1
410	3	602.824  	-82.1727  	-305.815  	-1	1	1
411	3	600.636  	-52.0669  	-310.331  	-1	1	1
412	3	614.476  	-28.6795  	-299.052  	-1	1	1
413	3	614.481  	-8.92057  	-275.122  	-1	1	1
414	3	585.47  	-0.791317  	-268.846  	-1	1	1
415	3	555.323  	0.514512  	-270.811  	-1	1	1
416	3	525.058  	-3.05312  	-276.111  	-1	1	1
417	3	524.41  	-30.4185  	-287.777  	-1	1	1
418	3	509.01  	-49.7797  	-304.295  	-1	1	1
419	3	490.352  	-72.9551  	-306.724  	-1	1	1
420	3	472.337  	-97.7698  	-309.215  	-1	1	1
421	3	443.061  	-105.627  	-311.707  	-1	1	1
422	3	414.269  	-104.149  	-304.169  	-1	1	1
423	3	390.992  	-99.62  	-285.279  	-1	1	1
424	3	365.951  	-93.5247  	-267.959  	-1	1	1
425	3	343.366  	-92.2239  	-247.763  	-1	1	1
426	3	326.82  	-91.3926  	-222.537  	-1	1	1
427	3	316.299  	-108.73  	-199.418  	-1	1	1
428	3	297.412  	-131.922  	-194.915  	-1	1	1
429	3	277.473  	-151.986  	-204.486  	-1	1	1
430	3	287.927  	-142.934  	-231.667  	-1	1	1
431	3	311.063  	-124.316  	-238.465  	-1	1	1
432	3	338.764  	-123.63  	-223.918  	-1	1	1
433	3	360.588  	-125.068  	-202.791  	-1	1	1
434	3	381.634  	-147.289  	-203.647  	-1	1	1
435	3	388.145  	-161.187  	-231.788  	-1	1	1
436	3	401.35  	-168.204  	-257.694  	-1	1	1
437	3	405.939  	-168.506  	-288.332  	-1	1	1
438	3	415.091  	-171.871  	-318.274  	-1	1	1
439	3	430.461  	-161.857  	-341.612  	-1	1	1
440	3	432.62  	-137.925  	-358.964  	-1	1	1
441	3	432.237  	-109.334  	-370.705  	-1	1	1
442	3	422.65  	-80.7977  	-377.987  	-1	1	1
443	3	408.145  	-56.0707  	-369.526  	-1	1	1
444	3	386.583  	-42.4955  	-353.06  	-1	1	1
445	3	383.335  	-38.1653  	-323.762  	-1	1	1
446	3	391.859  	-47.7861  	-294.039  	-1	1	1
447	3	413.541  	-70.0378  	-296.595  	-1	1	1
448	3	427.876  	-47.2949  	-310.082  	-1	1	1
449	3	433.059  	-18.0954  	-302.274  	-1	1	1
450	3	440.265  	6.24391  	-286.154  	-1	1	1
451	3	443.55  	32.0745  	-270.344  	-1	1	1
452	3	419.82  	51.1191  	-270.826  	-1	1	1
453	3	389.609  	55.0696  	-272.507  	-1	1	1
454	3	360.063  	46.7182  	-274.55  	-1	1	1
455	3	361.266  	54.107  	-244.179  	-1	1	1
456	3	386.494  	70.5487  	-236.614  	-1	1	1
457	3	407.699  	90.222  	-230.276  	-1	1	1
458	3	428.143  	100.15  	-209.456  	-1	1	1
459	3	432.372  	105.199  	-178.892  	-1	1	1
460	3	443.209  	110.101  	-150.388  	-1	1	1
461	3	466.649  	128.549  	-155.83  	-1	1	1
462	3	478.983  	133.527  	-183.004  	-1	1	1
463	3	478.189  	138.816  	-214.875  	-1	1	1
464	3	494.605  	155.136  	-235.021  	-1	1	1
465	3	517.936  	175.758  	-238.068  	-1	1	1
466	3	529.118  	201.716  	-252.526  	-1	1	1
467	3	531.388  	220.73  	-276.783  	-1	1	1
468	3	520.726  	243.51  	-292.315  	-1	1	1
469	3	516.217  	272.418  	-294.039  	-1	1	1
470	3	500.22  	297.953  	-290.974  	-1	1	1
471	3	492.344  	322.885  	-306.526  	-1	1	1
472	3	489.652  	350.028  	-319.699  	-1	1	1
473	3	473.47  	353.931  	-344.68  	-1	1	1
474	3	477.783  	327.774  	-358.973  	-1	1	1
475	3	479.213  	297.193  	-364.196  	-1	1	1
476	3	449.358  	301.345  	-363.225  	-1	1	1
477	3	435.641  	316.144  	-340.493  	-1	1	1
478	3	417.931  	332.405  	-319.96  	-1	1	1
479	3	395.775  	354.169  	-324.254  	-1	1	1
480	3	380.416  	352.86  	-350.806  	-1	1	1
481	3	379.067  	323.34  	-356.321  	-1	1	1
482	3	386.365  	296.692  	-341.823  	-1	1	1
483	3	376.101  	290.873  	-312.023  	-1	1	1
484	3	372.839  	308.496  	-286.98  	-1	1	1
485	3	364.711  	336.189  	-299.277  	-1	1	1
486	3	347.633  	350.993  	-319.594  	-1	1	1
487	3	322.989  	356.809  	-337.093  	-1	1	1
488	3	300.39  	360.188  	-317.19  	-1	1	1
489	3	322.144  	371.066  	-298.345  	-1	1	1
490	3	344.667  	383.226  	-284.117  	-1	1	1
491	3	364.232  	396.794  	-264.286  	-1	1	1
492	3	363.122  	425.59  	-274.78  	-1	1	1
493	3	367.078  	452.182  	-261.243  	-1	1	1
494	3	388.124  	456.668  	-237.352  	-1	1	1
495	3	395.889  	430.64  	-222.377  	-1	1	1
496	3	381.855  	402.684  	-228.152  	-1	1	1
497	3	373.044  	374.025  	-235.834  	-1	1	1
498	3	370.613  	349.677  	-253.467  	-1	1	1
499	3	391.556  	367.169  	-269.847  	-1	1	1
500	3	412.47  	373.293  	-291.08  	-1	1	1
501	3	422.925  	379.359  	-321.171  	-1	1	1
502	3	409.66  	380.925  	-350.091  	-1	1	1
503	3	380.55  	388.935  	-343.894  	-1	1	1
504	3	382.799  	403.451  	-315.929  	-1	1	1
505	3	402.567  	424.647  	-307.087  	-1	1	1
506	3	429.281  	437.534  	-302.285  	-1	1	1
507	3	458.406  	450.178  	-307.036  	-1	1	1
508	3	474.529  	469.764  	-324.99  	-1	1	1
509	3	475.068  	498.057  	-337.745  	-1	1	1
510	3	449.872  	512.44  	-345.74  	-1	1	1
511	3	420.367  	521.506  	-341.451  	-1	1	1
512	3	396.265  	515.062  	-322.635  	-1	1	1
513	3	386.714  	499.033  	-346.58  	-1	1	1
514	3	380.393  	481.77  	-370.423  	-1	1	1
515	3	385.706  	473.04  	-399.113  	-1	1	1
516	3	390.072  	483.309  	-427.85  	-1	1	1
517	3	396.035  	490.704  	-456.994  	-1	1	1
518	3	372.101  	502.323  	-472.256  	-1	1	1
519	3	349.447  	493.886  	-490.954  	-1	1	1
520	3	330.124  	479.862  	-510.296  	-1	1	1
521	3	310.754  	490.28  	-530.382  	-1	1	1
522	3	300.307  	519.905  	-529.681  	-1	1	1
523	3	289.027  	519.155  	-559.075  	-1	1	1
524	3	270.286  	528.483  	-582.272  	-1	1	1
525	3	247.778  	534.683  	-602.42  	-1	1	1
526	3	243.067  	533.421  	-631.777  	-1	1	1
527	3	260.387  	546.05  	-654.185  	-1	1	1
528	3	289.741  	544.792  	-647.368  	-1	1	1
529	3	315.085  	541.96  	-630.181  	-1	1	1
530	3	328.97  	536.702  	-603.668  	-1	1	1
531	3	344.308  	531.129  	-577.199  	-1	1	1
532	3	363.363  	520.48  	-555.796  	-1	1	1
533	3	387.266  	509.243  	-540.133  	-1	1	1
534	3	403.118  	502.492  	-514.933  	-1	1	1
535	3	388.385  	483.221  	-496.816  	-1	1	1
536	3	377.157  	460.826  	-480.339  	-1	1	1
537	3	365.271  	441.555  	-459.626  	-1	1	1
538	3	343.198  	419.607  	-449.685  	-1	1	1
539	3	330.236  	396.392  	-434.243  	-1	1	1
540	3	323.471  	370.704  	-419.199  	-1	1	1
541	3	310.027  	345.108  	-428.137  	-1	1	1
542	3	323.617  	353.971  	-454.338  	-1	1	1
543	3	337.734  	379.007  	-464.74  	-1	1	1
544	3	313.997  	397.521  	-476.934  	-1	1	1
545	3	287.343  	391.224  	-463.846  	-1	1	1
546	3	260.451  	397.329  	-449.991  	-1	1	1
547	3	231.76  	401.049  	-441.808  	-1	1	1
548	3	204.588  	393.529  	-429.887  	-1	1	1
549	3	174.937  	394.95  	-427.431  	-1	1	1
550	3	179.246  	375.96  	-451.026  	-1	1	1
551	3	187.128  	362.673  	-477.238  	-1	1	1
552	3	181.811  	357.91  	-507.66  	-1	1	1
553	3	202.006  	372.975  	-526.405  	-1	1	1
554	3	223.582  	388.449  	-512.587  	-1	1	1
555	3	239.717  	401.046  	-489.039  	-1	1	1
556	3	259.053  	422.06  	-481.386  	-1	1	1
557	3	265.825  	437.588  	-507.316  	-1	1	1
558	3	259.818  	449.042  	-534.687  	-1	1	1
559	3	237.764  	460.499  	-553.538  	-1	1	1
560	3	207.995  	465.753  	-563.46  	-1	1	1
561	3	182.122  	462.643  	-577.714  	-1	1	1
562	3	155.514  	451.345  	-585.154  	-1	1	1
563	3	143.157  	424.595  	-593.906  	-1	1	1
564	3	143.111  	395.365  	-601.68  	-1	1	1
565	3	152.477  	370.885  	-616.279  	-1	1	1
566	3	135.256  	348.148  	-626.758  	-1	1	1
567	3	104.155  	347.298  	-637.004  	-1	1	1
568	3	74.8533  	358.219  	-639.312  	-1	1	1
569	3	49.6098  	362.731  	-656.013  	-1	1	1
570	3	40.29  	375.93  	-680.734  	-1	1	1
571	3	34.4158  	375.849  	-710.235  	-1	1	1
572	3	19.6674  	365.165  	-734.629  	-1	1	1
573	3	33.6868  	349.391  	-757.822  	-1	1	1
574	3	45.9091  	327.791  	-739.481  	-1	1	1
575	3	41.1193  	309.041  	-716.247  	-1	1	1
576	3	35.9435  	307.96  	-686.297  	-1	1	1
577	3	46.4098  	295.625  	-659.388  	-1	1	1
578	3	61.3667  	273.186  	-644.497  	-1	1	1
579	3	45.5513  	256.406  	-622.735  	-1	1	1
580	3	23.4113  	237.679  	-614.633  	-1	1	1
581	3	-2.57234  	229.225  	-603.038  	-1	1	1
582	3	-8.25284  	250.511  	-583.968  	-1	1	1
583	3	7.93917  	275.948  	-586.895  	-1	1	1
584	3	25.5067  	297.656  	-573.689  	-1	1	1
585	3	30.7024  	318.625  	-552.13  	-1	1	1
586	3	26.3113  	339.773  	-530.818  	-1	1	1
587	3	21.8954  	362.263  	-510.974  	-1	1	1
588	3	23.4897  	362.586  	-480.448  	-1	1	1
589	3	34.5912  	361.332  	-452.179  	-1	1	1
590	3	35.0391  	358.363  	-422.63  	-1	1	1
591	3	46.9947  	364.331  	-395.229  	-1	1	1
592	3	63.1117  	386.683  	-385.796  	-1	1	1
593	3	88.1022  	401.612  	-374.566  	-1	1	1
594	3	109.626  	422.477  	-372.255  	-1	1	1
595	3	136.256  	428.191  	-387.397  	-1	1	1
596	3	164.636  	421.301  	-392.716  	-1	1	1
597	3	190.914  	405.427  	-394.03  	-1	1	1
598	3	208.725  	380.365  	-392.628  	-1	1	1
599	3	216.642  	354.342  	-380.6  	-1	1	1
600	3	208.768  	332.172  	-361.226  	-1	1	1
601	3	213.328  	306.336  	-345.323  	-1	1	1
602	3	202.557  	279.919  	-356.492  	-1	1	1
603	3	191.114  	265.34  	-379.426  	-1	1	1
604	3	177.056  	272.575  	-405.195  	-1	1	1
605	3	154.338  	282.032  	-422.719  	-1	1	1
606	3	128.794  	279.569  	-437.388  	-1	1	1
607	3	108.434  	270.282  	-456.343  	-1	1	1
608	3	95.4207  	251.12  	-476.577  	-1	1	1
609	3	111.359  	237.727  	-498.811  	-1	1	1
610	3	134.604  	221.847  	-486.268  	-1	1	1
611	3	138.477  	219.011  	-456.055  	-1	1	1
612	3	128.267  	201.61  	-433.368  	-1	1	1
613	3	122.143  	173.598  	-422.443  	-1	1	1
614	3	115.789  	150.011  	-406.094  	-1	1	1
615	3	103.359  	122.566  	-395.699  	-1	1	1
616	3	101.167  	91.7994  	-384.924  	-1	1	1
617	3	92.5769  	63.0997  	-380.616  	-1	1	1
618	3	101.608  	38.5442  	-397.077  	-1	1	1
619	3	124.446  	25.1474  	-411.331  	-1	1	1
620	3	154.843  	25.6975  	-409.078  	-1	1	1
621	3	183.653  	35.0951  	-409.316  	-1	1	1
622	3	212.906  	36.9666  	-418.302  	-1	1	1
623	3	230.087  	36.2125  	-444.122  	-1	1	1
624	3	235.839  	33.7678  	-473.609  	-1	1	1
625	3	259.699  	48.9805  	-462.404  	-1	1	1
626	3	278.146  	52.8387  	-437.879  	-1	1	1
627	3	289.261  	36.0293  	-416.307  	-1	1	1
628	3	282.12  	16.8266  	-438.973  	-1	1	1
629	3	266.96  	1.5697  	-459.608  	-1	1	1
630	3	285.534  	-21.0923  	-451.522  	-1	1	1
631	3	313.571  	-30.8956  	-443.891  	-1	1	1
632	3	336.732  	-39.0307  	-426.485  	-1	1	1
633	3	349.46  	-49.7269  	-401.147  	-1	1	1
634	3	339.449  	-59.4006  	-374.802  	-1	1	1
635	3	335.251  	-58.5604  	-345.052  	-1	1	1
636	3	343.557  	-40.6518  	-321.441  	-1	1	1
637	3	357.038  	-18.534  	-303.308  	-1	1	1
638	3	370.548  	6.4955  	-290.615  	-1	1	1
639	3	381.97  	6.63066  	-318.635  	-1	1	1
640	3	391.08  	4.73059  	-349.692  	-1	1	1
641	3	406.275  	4.92681  	-374.907  	-1	1	1
642	3	428.704  	3.44333  	-396.463  	-1	1	1
643	3	447.362  	-19.6096  	-403.028  	-1	1	1
644	3	458.537  	-39.6035  	-383.591  	-1	1	1
645	3	448.317  	-41.1026  	-355.573  	-1	1	1
646	3	439.064  	-17.842  	-341.032  	-1	1	1
647	3	448.327  	11.415  	-341.232  	-1	1	1
648	3	453.905  	34.7289  	-360.093  	-1	1	1
649	3	478.035  	48.5622  	-374.577  	-1	1	1
650	3	506.374  	51.6317  	-386.181  	-1	1	1
651	3	503.333  	22.2317  	-375.83  	-1	1	1
652	3	495.972  	-2.77002  	-359.978  	-1	1	1
653	3	508.657  	-27.1959  	-348.446  	-1	1	1
654	3	538.277  	-21.3447  	-346.955  	-1	1	1
655	3	549.638  	-3.69612  	-368.918  	-1	1	1
656	3	550.846  	19.2726  	-390.079  	-1	1	1
657	3	538.258  	29.2928  	-416.328  	-1	1	1
658	3	510.083  	37.3696  	-420.095  	-1	1	1
659	3	479.357  	38.1342  	-416.117  	-1	1	1
660	3	480.258  	7.45766  	-417.107  	-1	1	1
661	3	481.22  	-23.0065  	-422.158  	-1	1	1
662	3	493.446  	-46.6946  	-407.239  	-1	1	1
663	3	518.478  	-32.9416  	-395.065  	-1	1	1
664	3	538.44  	-11.6997  	-403.967  	-1	1	1
665	3	547.124  	-38.6231  	-417.447  	-1	1	1
666	3	535.625  	-63.7375  	-403.94  	-1	1	1
667	3	518.92  	-75.0446  	-381.182  	-1	1	1
668	3	534.583  	-54.1717  	-365.822  	-1	1	1
669	3	557.336  	-37.4041  	-374.73  	-1	1	1
670	3	579.628  	-19.4446  	-381.094  	-1	1	1
671	3	592.035  	6.85378  	-377.51  	-1	1	1
672	3	583.389  	8.85431  	-348.415  	-1	1	1
673	3	563.358  	4.85006  	-325.512  	-1	1	1
674	3	536.813  	4.07169  	-311.491  	-1	1	1
675	3	506.31  	1.20187  	-305.167  	-1	1	1
676	3	475.269  	0.777244  	-304.319  	-1	1	1
677	3	483.836  	15.6684  	-329.585  	-1	1	1
678	3	502.207  	36.2842  	-341.663  	-1	1	1
679	3	522.919  	56.8327  	-347.67  	-1	1	1
680	3	550.361  	62.8341  	-363.348  	-1	1	1
681	3	569.688  	84.4199  	-374.164  	-1	1	1
682	3	584.656  	100.401  	-394.252  	-1	1	1
683	3	595.15  	104.381  	-423.046  	-1	1	1
684	3	602.196  	93.9106  	-450.456  	-1	1	1
685	3	601.099  	71.338  	-471.516  	-1	1	1