# LAMMPS data file for replicating chromosomes formed of rigid body monomers

8612		atoms
8		atom types
6050		ellipsoids
6001		bonds
2		bond types
12002		angles
4		angle types


-1140	1140	xlo xhi
-1140	1140	ylo yhi
-1140	1140	zlo zhi

Atoms # atom-ID atom-type x y z molecule-ID ellipsoid-flag density

1	5	86.5932  	657.108  	-311.607  	-1	1	1
2	3	83.7418  	657.092  	-280.866  	-1	1	1
3	3	88.1291  	663.774  	-252.175  	-1	1	1
4	3	80.4691  	684.734  	-231.464  	-1	1	1
5	3	68.3853  	695.452  	-205.701  	-1	1	1
6	3	63.0404  	719.079  	-187.425  	-1	1	1
7	3	58.2999  	746.076  	-172.044  	-1	1	1
8	3	45.5131  	772.863  	-164.418  	-1	1	1
9	3	32.7616  	792.446  	-146.724  	-1	1	1
10	3	2.93279  	793.838  	-139.264  	-1	1	1
11	3	-25.2121  	780.113  	-140.586  	-1	1	1
12	3	-45.9625  	759.447  	-140.989  	-1	1	1
13	3	-52.3914  	730.38  	-137.065  	-1	1	1
14	3	-31.5009  	707.025  	-133.34  	-1	1	1
15	3	-11.1084  	690.111  	-116.552  	-1	1	1
16	3	15.936  	676.664  	-117.175  	-1	1	1
17	3	35.9121  	665.31  	-137.056  	-1	1	1
18	3	21.0172  	650.238  	-158.931  	-1	1	1
19	3	-9.61082  	646.961  	-163.997  	-1	1	1
20	3	-35.8003  	658.144  	-151.916  	-1	1	1
21	3	-57.7553  	670.36  	-134.842  	-1	1	1
22	3	-70.252  	677.651  	-109.35  	-1	1	1
23	3	-70.5579  	698.582  	-86.3554  	-1	1	1
24	3	-67.2817  	722.719  	-67.8656  	-1	1	1
25	3	-67.6291  	747.268  	-48.8317  	-1	1	1
26	3	-68.2439  	771.502  	-30.1676  	-1	1	1
27	3	-71.0065  	796.981  	-13.7198  	-1	1	1
28	3	-65.0154  	816.442  	9.13633  	-1	1	1
29	3	-60.0236  	833.201  	35.4053  	-1	1	1
30	3	-48.9179  	813.416  	55.5993  	-1	1	1
31	3	-39.0344  	785.868  	59.5886  	-1	1	1
32	3	-27.8651  	761.378  	45.6576  	-1	1	1
33	3	-21.4606  	754.485  	16.8209  	-1	1	1
34	3	-0.736256  	762.232  	-4.3535  	-1	1	1
35	3	21.5267  	772.918  	-22.8025  	-1	1	1
36	3	34.9905  	790.931  	-44.0126  	-1	1	1
37	3	31.6954  	817.049  	-61.3282  	-1	1	1
38	3	10.8893  	835.372  	-49.3516  	-1	1	1
39	3	4.90229  	843.015  	-19.7357  	-1	1	1
40	3	19.673  	826.501  	2.6469  	-1	1	1
41	3	42.85  	807.995  	7.75427  	-1	1	1
42	3	66.9142  	790.57  	-0.189202  	-1	1	1
43	3	71.8873  	764.144  	-14.7925  	-1	1	1
44	3	64.0913  	734.883  	-18.3417  	-1	1	1
45	3	43.4198  	715.588  	-4.8117  	-1	1	1
46	3	20.2971  	716.638  	13.3189  	-1	1	1
47	3	4.86928  	721.301  	41.5761  	-1	1	1
48	3	-4.75371  	727.264  	69.6679  	-1	1	1
49	3	-2.15814  	714.763  	96.8585  	-1	1	1
50	3	13.9094  	691.794  	108.091  	-1	1	1
51	3	30.6817  	693.544  	82.6046  	-1	1	1
52	3	18.8999  	689.823  	56.4423  	-1	1	1
53	3	-12.0613  	687.385  	59.2192  	-1	1	1
54	3	-38.0167  	699.416  	71.5233  	-1	1	1
55	3	-43.6628  	684.067  	98.6307  	-1	1	1
56	3	-21.8861  	664.311  	108.182  	-1	1	1
57	3	5.83911  	651.17  	103.59  	-1	1	1
58	3	31.1887  	641.215  	90.1979  	-1	1	1
59	3	56.174  	639.813  	73.9259  	-1	1	1
60	3	81.5393  	640.229  	57.1637  	-1	1	1
61	3	98.9998  	639.411  	32.0423  	-1	1	1
62	3	113.647  	643.108  	5.81028  	-1	1	1
63	3	120.682  	645.699  	-24.4567  	-1	1	1
64	3	109.781  	648.342  	-52.4907  	-1	1	1
65	3	90.9719  	649.204  	-75.3035  	-1	1	1
66	3	78.3753  	653.572  	-103.165  	-1	1	1
67	3	68.3497  	651.915  	-131.353  	-1	1	1
68	3	61.7598  	647.909  	-161.888  	-1	1	1
69	3	53.4148  	643.692  	-190.529  	-1	1	1
70	3	32.9897  	643.213  	-214.724  	-1	1	1
71	3	6.50862  	644.046  	-229.655  	-1	1	1
72	3	-23.859  	643.339  	-234.216  	-1	1	1
73	3	-54.0084  	652.171  	-234.129  	-1	1	1
74	3	-53.1252  	669.645  	-207.929  	-1	1	1
75	3	-34.7419  	682.523  	-187.899  	-1	1	1
76	3	-11.6167  	690.606  	-168.438  	-1	1	1
77	3	13.0798  	705.882  	-154.606  	-1	1	1
78	3	41.9885  	709.104  	-141.574  	-1	1	1
79	3	60.9468  	708.521  	-118.186  	-1	1	1
80	3	87.6607  	706.62  	-106.044  	-1	1	1
81	3	115.436  	709.978  	-93.9026  	-1	1	1
82	3	143.036  	718.113  	-86.2921  	-1	1	1
83	3	160.009  	719.836  	-59.8542  	-1	1	1
84	3	162.808  	726.173  	-29.3858  	-1	1	1
85	3	161.568  	724.014  	1.03433  	-1	1	1
86	3	171.861  	727.238  	29.841  	-1	1	1
87	3	197.058  	738.177  	45.6282  	-1	1	1
88	3	220.412  	758.007  	39.9165  	-1	1	1
89	3	232.891  	776.744  	18.0746  	-1	1	1
90	3	246.221  	798.504  	1.67344  	-1	1	1
91	3	241.516  	797.553  	-27.4376  	-1	1	1
92	3	232.518  	777.185  	-46.5729  	-1	1	1
93	3	225.834  	751.913  	-62.5867  	-1	1	1
94	3	234.47  	722.061  	-58.1406  	-1	1	1
95	3	233.424  	693.518  	-66.2766  	-1	1	1
96	3	218.696  	670.693  	-82.3667  	-1	1	1
97	3	196.854  	669  	-101.818  	-1	1	1
98	3	175.079  	677.522  	-121.859  	-1	1	1
99	3	165.176  	704.674  	-132.292  	-1	1	1
100	3	160.535  	735.289  	-133.67  	-1	1	1
101	3	158.05  	760.32  	-116.074  	-1	1	1
102	3	151.53  	774.066  	-88.8277  	-1	1	1
103	3	139.98  	771.65  	-60.1356  	-1	1	1
104	3	129.183  	782.86  	-33.9451  	-1	1	1
105	3	124.199  	793.476  	-4.83152  	-1	1	1
106	3	112.432  	795.104  	23.8427  	-1	1	1
107	3	112.789  	792.594  	53.3565  	-1	1	1
108	3	132.36  	781.652  	75.7956  	-1	1	1
109	3	155.03  	768.984  	92.3112  	-1	1	1
110	3	183.029  	761.238  	99.8568  	-1	1	1
111	3	209.546  	746.418  	101.051  	-1	1	1
112	3	221.696  	718.604  	106.226  	-1	1	1
113	3	237.051  	694.664  	115.728  	-1	1	1
114	3	263.455  	708.088  	113.186  	-1	1	1
115	3	270.083  	720.951  	88.2218  	-1	1	1
116	3	252.688  	712.728  	63.5969  	-1	1	1
117	3	235.847  	692.401  	47.5667  	-1	1	1
118	3	221.033  	665.838  	42.1848  	-1	1	1
119	3	199.012  	645.22  	45.0202  	-1	1	1
120	3	188.162  	631.331  	70.6423  	-1	1	1
121	3	187.863  	633.733  	101.293  	-1	1	1
122	3	197.421  	631.507  	130.312  	-1	1	1
123	3	222.713  	627.269  	145.634  	-1	1	1
124	3	250.967  	620.046  	153.735  	-1	1	1
125	3	277.32  	603.185  	149.712  	-1	1	1
126	3	299.854  	585.631  	141.429  	-1	1	1
127	3	317.448  	561.192  	136.753  	-1	1	1
128	3	339.967  	542.703  	127.005  	-1	1	1
129	3	345.85  	520.727  	106.299  	-1	1	1
130	3	340.349  	500.605  	83.9912  	-1	1	1
131	3	309.618  	501.554  	90.3301  	-1	1	1
132	3	291.702  	507.068  	114.724  	-1	1	1
133	3	273.298  	517.41  	136.826  	-1	1	1
134	3	259.722  	544.818  	139.164  	-1	1	1
135	3	252.598  	567.877  	119.374  	-1	1	1
136	3	245.632  	574.147  	89.3302  	-1	1	1
137	3	236.541  	560.062  	63.4006  	-1	1	1
138	3	222.429  	570.01  	38.223  	-1	1	1
139	3	204.845  	587.44  	21.4642  	-1	1	1
140	3	198.324  	612.451  	3.68656  	-1	1	1
141	3	197.067  	619.591  	-26.5381  	-1	1	1
142	3	215.29  	603.458  	-46.1946  	-1	1	1
143	3	217.767  	572.492  	-39.9105  	-1	1	1
144	3	218.977  	546.415  	-21.4186  	-1	1	1
145	3	226.161  	520.639  	-5.63046  	-1	1	1
146	3	227.269  	501.036  	18.0197  	-1	1	1
147	3	219.851  	475.012  	32.0783  	-1	1	1
148	3	221.182  	456.14  	55.538  	-1	1	1
149	3	232.48  	446.825  	82.8711  	-1	1	1
150	3	239.8  	454.736  	111.151  	-1	1	1
151	3	241.68  	468.751  	138.824  	-1	1	1
152	3	242.447  	473.721  	169.089  	-1	1	1
153	3	252.608  	477.769  	197.722  	-1	1	1
154	3	251.69  	465.469  	225.687  	-1	1	1
155	3	264.344  	447.478  	246.841  	-1	1	1
156	3	270.704  	418.09  	243.679  	-1	1	1
157	3	257.434  	395.03  	227.703  	-1	1	1
158	3	228.639  	387.183  	228.008  	-1	1	1
159	3	204.452  	380.29  	245  	-1	1	1
160	3	187.067  	379.974  	270.025  	-1	1	1
161	3	192.847  	367.118  	299.029  	-1	1	1
162	3	212.632  	359.659  	321.674  	-1	1	1
163	3	224.484  	351.378  	349.818  	-1	1	1
164	3	219.492  	346.53  	380.577  	-1	1	1
165	3	193.182  	363.76  	382.485  	-1	1	1
166	3	170.11  	372.49  	364.048  	-1	1	1
167	3	162.706  	364.949  	335.845  	-1	1	1
168	3	153.045  	357.072  	308.137  	-1	1	1
169	3	148.571  	348.764  	278.863  	-1	1	1
170	3	150.49  	344.595  	247.536  	-1	1	1
171	3	173.233  	346.999  	229.337  	-1	1	1
172	3	196.89  	346.964  	210.507  	-1	1	1
173	3	220.009  	341.539  	190.111  	-1	1	1
174	3	243.967  	335.059  	174.624  	-1	1	1
175	3	263.575  	321.73  	155.107  	-1	1	1
176	3	274.642  	291.875  	152.278  	-1	1	1
177	3	277.644  	276.048  	176.844  	-1	1	1
178	3	259.441  	280.54  	200.3  	-1	1	1
179	3	261.371  	253.186  	211.975  	-1	1	1
180	3	265.217  	240.916  	239.798  	-1	1	1
181	3	264.215  	233.75  	269.647  	-1	1	1
182	3	259.337  	234.713  	300.57  	-1	1	1
183	3	251.152  	253.112  	322.162  	-1	1	1
184	3	264.101  	270.057  	342.407  	-1	1	1
185	3	277.87  	292.397  	357.677  	-1	1	1
186	3	305.939  	294.713  	368.806  	-1	1	1
187	3	316.237  	267.872  	380.8  	-1	1	1
188	3	311.842  	237.589  	380.312  	-1	1	1
189	3	302.704  	209.284  	386.783  	-1	1	1
190	3	303.377  	178.479  	387.022  	-1	1	1
191	3	301.396  	148.337  	394.103  	-1	1	1
192	3	282.982  	128.118  	406.695  	-1	1	1
193	3	265.512  	151.052  	417.971  	-1	1	1
194	3	263.895  	167.735  	392.986  	-1	1	1
195	3	272.562  	162.997  	364.483  	-1	1	1
196	3	288.149  	138.568  	355.843  	-1	1	1
197	3	306.264  	113.589  	359.351  	-1	1	1
198	3	308.58  	100.165  	387.118  	-1	1	1
199	3	308.524  	99.4169  	417.302  	-1	1	1
200	3	297.825  	110.83  	444.904  	-1	1	1
201	3	291.923  	120.547  	473.357  	-1	1	1
202	3	275.371  	138.659  	491.587  	-1	1	1
203	3	254.084  	159.8  	498.927  	-1	1	1
204	3	237.007  	184.934  	495.832  	-1	1	1
205	3	236.971  	215.514  	494.506  	-1	1	1
206	3	249.861  	242.685  	490.437  	-1	1	1
207	3	251.837  	264.357  	510.96  	-1	1	1
208	3	246.506  	281.568  	534.998  	-1	1	1
209	3	242.524  	278.935  	564.706  	-1	1	1
210	3	247.635  	271.22  	594.184  	-1	1	1
211	3	252.298  	287.256  	621.443  	-1	1	1
212	3	271.194  	305.959  	637.768  	-1	1	1
213	3	293.747  	324.761  	631.158  	-1	1	1
214	3	317.21  	339.383  	620.516  	-1	1	1
215	3	334.177  	357.588  	601.821  	-1	1	1
216	3	334.3  	359.933  	571.179  	-1	1	1
217	3	323.201  	370.447  	544.899  	-1	1	1
218	3	316.276  	365.468  	516.378  	-1	1	1
219	3	312.872  	361.129  	486.661  	-1	1	1
220	3	315.494  	336.52  	466.846  	-1	1	1
221	3	327.171  	312.386  	480.805  	-1	1	1
222	3	324.381  	294.712  	506.229  	-1	1	1
223	3	314.13  	298.516  	535.146  	-1	1	1
224	3	303.008  	308.73  	561.071  	-1	1	1
225	3	291.247  	321.291  	586.173  	-1	1	1
226	3	286.989  	351.649  	591.327  	-1	1	1
227	3	287.527  	381.384  	584.365  	-1	1	1
228	3	279.83  	408.787  	574.51  	-1	1	1
229	3	276.791  	429.118  	551.177  	-1	1	1
230	3	264.823  	446.16  	528.765  	-1	1	1
231	3	249.881  	461.025  	507.617  	-1	1	1
232	3	227.179  	458.525  	485.593  	-1	1	1
233	3	204.131  	447.258  	468.587  	-1	1	1
234	3	199.98  	417.733  	476.3  	-1	1	1
235	3	205.078  	397.039  	498.065  	-1	1	1
236	3	202.55  	389.654  	528.231  	-1	1	1
237	3	193.97  	399.875  	556.637  	-1	1	1
238	3	177.596  	423.99  	566.441  	-1	1	1
239	3	154.531  	432.688  	547.47  	-1	1	1
240	3	144.991  	435.465  	519.513  	-1	1	1
241	3	143.704  	441.799  	489.355  	-1	1	1
242	3	134.921  	461.758  	467.449  	-1	1	1
243	3	116.992  	476.327  	447.688  	-1	1	1
244	3	88.3614  	488.364  	440.907  	-1	1	1
245	3	65.8148  	499.933  	456.303  	-1	1	1
246	3	61.5476  	505.85  	487.112  	-1	1	1
247	3	83.3502  	518.487  	504.872  	-1	1	1
248	3	103.897  	533.75  	522.037  	-1	1	1
249	3	118.767  	543.01  	547.698  	-1	1	1
250	3	115.466  	557.605  	572.745  	-1	1	1
251	3	105.387  	570.977  	597.688  	-1	1	1
252	3	93.8969  	583.895  	623.992  	-1	1	1
253	3	73.1324  	584.924  	646.385  	-1	1	1
254	3	55.0978  	564.455  	660.243  	-1	1	1
255	3	47.284  	535.486  	666.045  	-1	1	1
256	3	47.3418  	504.758  	660.77  	-1	1	1
257	3	47.6485  	490.635  	632.577  	-1	1	1
258	3	50.7909  	491.406  	602.093  	-1	1	1
259	3	40.7965  	495.418  	574.639  	-1	1	1
260	3	36.9939  	517.252  	552.567  	-1	1	1
261	3	27.741  	543.25  	538.893  	-1	1	1
262	3	34.4001  	564.536  	518.807  	-1	1	1
263	3	49.3781  	582.461  	499.316  	-1	1	1
264	3	72.8104  	596.178  	485.952  	-1	1	1
265	3	101.019  	601.592  	477.688  	-1	1	1
266	3	125.562  	606.696  	459.259  	-1	1	1
267	3	148.18  	592.674  	444.217  	-1	1	1
268	3	166.425  	569.364  	436.161  	-1	1	1
269	3	189.826  	551.356  	444.551  	-1	1	1
270	3	218.956  	553.414  	454.273  	-1	1	1
271	3	248.317  	547.063  	463.722  	-1	1	1
272	3	275.337  	533.846  	461.824  	-1	1	1
273	3	279.635  	505.191  	472.075  	-1	1	1
274	3	274.483  	474.859  	476.98  	-1	1	1
275	3	259.56  	447.55  	469.889  	-1	1	1
276	3	251.921  	425.9  	449.936  	-1	1	1
277	3	255.194  	418.905  	420.181  	-1	1	1
278	3	285.426  	426.224  	416.692  	-1	1	1
279	3	313.857  	430.011  	427.354  	-1	1	1
280	3	335.714  	427.252  	447.155  	-1	1	1
281	3	348.73  	430.774  	476.637  	-1	1	1
282	3	353.737  	426.511  	507.201  	-1	1	1
283	3	372.925  	425.076  	531.116  	-1	1	1
284	3	400.866  	417.307  	542.429  	-1	1	1
285	3	430.009  	412.556  	531.761  	-1	1	1
286	3	437.178  	420.413  	502.414  	-1	1	1
287	3	439.849  	437.68  	477.736  	-1	1	1
288	3	445.156  	460.41  	458.144  	-1	1	1
289	3	455.669  	476.752  	434.533  	-1	1	1
290	3	468.363  	496.197  	414.96  	-1	1	1
291	3	488.763  	506.179  	395.073  	-1	1	1
292	3	512.95  	517.214  	379.935  	-1	1	1
293	3	535.712  	511.597  	360.978  	-1	1	1
294	3	547.891  	491.507  	341.632  	-1	1	1
295	3	542.768  	464.645  	329.028  	-1	1	1
296	3	531.793  	441.064  	311.017  	-1	1	1
297	3	514.037  	419.939  	298.643  	-1	1	1
298	3	486.824  	404.351  	296.136  	-1	1	1
299	3	458.849  	393.3  	304.582  	-1	1	1
300	3	428.411  	394.55  	302.45  	-1	1	1
301	3	401.395  	410.911  	305.244  	-1	1	1
302	3	376.338  	421.08  	318.982  	-1	1	1
303	3	367.679  	413.881  	347.255  	-1	1	1
304	3	377.114  	398.009  	371.453  	-1	1	1
305	3	380.476  	368.162  	375.422  	-1	1	1
306	3	376.5  	339.074  	367.782  	-1	1	1
307	3	387.347  	314.561  	354.849  	-1	1	1
308	3	389.296  	318.242  	324.67  	-1	1	1
309	3	407.52  	342.592  	328.187  	-1	1	1
310	3	423.849  	362.025  	344.204  	-1	1	1
311	3	442.664  	384.344  	354.656  	-1	1	1
312	3	461.742  	399.041  	373.57  	-1	1	1
313	3	478.052  	409.357  	397.203  	-1	1	1
314	3	501.096  	415.697  	414.642  	-1	1	1
315	3	504.694  	436.199  	436.284  	-1	1	1
316	3	495.738  	455.96  	457.109  	-1	1	1
317	3	483.748  	467.285  	484.396  	-1	1	1
318	3	485.657  	463.662  	515.014  	-1	1	1
319	3	490.661  	438.674  	531.678  	-1	1	1
320	3	491.011  	413.214  	515.493  	-1	1	1
321	3	484.901  	386.991  	501.715  	-1	1	1
322	3	483.163  	358.141  	488.914  	-1	1	1
323	3	471.793  	333.996  	473.536  	-1	1	1
324	3	454.245  	312.047  	462.269  	-1	1	1
325	3	440.104  	289.677  	446.75  	-1	1	1
326	3	422.361  	267.291  	439.721  	-1	1	1
327	3	398.861  	247.238  	445.77  	-1	1	1
328	3	369.474  	241.053  	451.093  	-1	1	1
329	3	345.353  	224.633  	462.544  	-1	1	1
330	3	330.453  	213.966  	486.93  	-1	1	1
331	3	335.743  	195.389  	510.899  	-1	1	1
332	3	343.322  	198.61  	541.683  	-1	1	1
333	3	362.101  	201.129  	565.799  	-1	1	1
334	3	380.66  	202.189  	590.23  	-1	1	1
335	3	375.045  	183.76  	614.158  	-1	1	1
336	3	358.336  	162.52  	627.993  	-1	1	1
337	3	338.226  	144.338  	616.379  	-1	1	1
338	3	333.472  	114.509  	611.953  	-1	1	1
339	3	323.574  	92.9962  	631.504  	-1	1	1
340	3	311.432  	85.7146  	658.715  	-1	1	1
341	3	296.455  	95.8976  	684.164  	-1	1	1
342	3	279.173  	116.794  	698.186  	-1	1	1
343	3	260.202  	133.393  	715.816  	-1	1	1
344	3	235.824  	148.371  	724.319  	-1	1	1
345	3	207.463  	159.559  	723.306  	-1	1	1
346	3	180.559  	157.659  	707.066  	-1	1	1
347	3	162.399  	148.722  	685.578  	-1	1	1
348	3	153.017  	164.259  	658.5  	-1	1	1
349	3	145.248  	174.896  	630.82  	-1	1	1
350	3	120.478  	185.427  	613.987  	-1	1	1
351	3	99.132  	205.909  	607.874  	-1	1	1
352	3	68.8606  	211.607  	612.863  	-1	1	1
353	3	40.5761  	214.937  	623.834  	-1	1	1
354	3	12.2869  	222.444  	632.003  	-1	1	1
355	3	-14.4548  	237.97  	633.055  	-1	1	1
356	3	-31.872  	262.903  	629.56  	-1	1	1
357	3	-54.2902  	283.688  	632.295  	-1	1	1
358	3	-64.8843  	311.86  	635.085  	-1	1	1
359	3	-67.707  	341.491  	636.824  	-1	1	1
360	3	-65.8538  	370.177  	647.792  	-1	1	1
361	3	-78.0452  	395.692  	662.393  	-1	1	1
362	3	-88.1811  	415.98  	681.525  	-1	1	1
363	3	-102.391  	429.319  	705.772  	-1	1	1
364	3	-122.347  	432.558  	729.971  	-1	1	1
365	3	-132.379  	433.104  	758.471  	-1	1	1
366	3	-129.151  	409.788  	777.63  	-1	1	1
367	3	-126.098  	380.101  	788.082  	-1	1	1
368	3	-117.973  	352.663  	776.733  	-1	1	1
369	3	-105.557  	332.276  	757.859  	-1	1	1
370	3	-96.4857  	326.393  	728.538  	-1	1	1
371	3	-104.125  	325.314  	699.421  	-1	1	1
372	3	-121.657  	310.536  	678.885  	-1	1	1
373	3	-143.652  	289.577  	671.123  	-1	1	1
374	3	-151.865  	276.617  	645.433  	-1	1	1
375	3	-153.748  	263.939  	618.348  	-1	1	1
376	3	-165.341  	250.248  	592.613  	-1	1	1
377	3	-189.388  	234.799  	580.973  	-1	1	1
378	3	-210.451  	211.079  	583.984  	-1	1	1
379	3	-220.983  	191.216  	604.975  	-1	1	1
380	3	-218.253  	178.803  	631.984  	-1	1	1
381	3	-214.462  	172.269  	661.531  	-1	1	1
382	3	-234.538  	177.793  	684.068  	-1	1	1
383	3	-263.27  	165.004  	686.312  	-1	1	1
384	3	-285.226  	144.966  	681.792  	-1	1	1
385	3	-307.379  	123.652  	681.097  	-1	1	1
386	3	-331.187  	102.826  	674.132  	-1	1	1
387	3	-350.367  	80.3412  	681.593  	-1	1	1
388	3	-356.417  	63.0343  	705.569  	-1	1	1
389	3	-364.03  	58.8501  	735.695  	-1	1	1
390	3	-364.766  	60.4665  	767.086  	-1	1	1
391	3	-337.983  	60.9416  	781.82  	-1	1	1
392	3	-307.23  	56.1242  	780.946  	-1	1	1
393	3	-281.584  	60.3315  	766.964  	-1	1	1
394	3	-261.463  	82.3713  	760.329  	-1	1	1
395	3	-235.529  	93.1546  	771.554  	-1	1	1
396	3	-212.416  	110.997  	775.903  	-1	1	1
397	3	-189.68  	119.593  	759.386  	-1	1	1
398	3	-173.812  	129.793  	735.582  	-1	1	1
399	3	-160.722  	133.598  	708.039  	-1	1	1
400	3	-150.719  	126.072  	679.919  	-1	1	1
401	3	-140.667  	117.581  	651.736  	-1	1	1
402	3	-136.413  	139.217  	631.273  	-1	1	1
403	3	-138.079  	163.069  	610.43  	-1	1	1
404	3	-137.538  	177.968  	583.898  	-1	1	1
405	3	-157.031  	197.932  	573.015  	-1	1	1
406	3	-185.512  	201.363  	560.777  	-1	1	1
407	3	-205.006  	185.459  	543.932  	-1	1	1
408	3	-223.188  	164.077  	533.559  	-1	1	1
409	3	-223.443  	139.657  	516.058  	-1	1	1
410	3	-220.551  	126.824  	488.473  	-1	1	1
411	3	-211.835  	118.533  	460.888  	-1	1	1
412	3	-198.817  	99.3448  	439.991  	-1	1	1
413	3	-189.952  	72.6561  	427.351  	-1	1	1
414	3	-193.208  	42.4509  	421.336  	-1	1	1
415	3	-188.137  	13.317  	427.067  	-1	1	1
416	3	-176.774  	-12.6695  	436.123  	-1	1	1
417	3	-179.286  	-28.4012  	462.531  	-1	1	1
418	3	-165.757  	-16.7571  	487.305  	-1	1	1
419	3	-168.837  	10.2905  	500.584  	-1	1	1
420	3	-182.811  	35.8978  	493.761  	-1	1	1
421	3	-197.84  	61.8996  	500.755  	-1	1	1
422	3	-225.749  	64.4069  	513.182  	-1	1	1
423	3	-245.715  	78.6445  	531.161  	-1	1	1
424	3	-269.996  	83.1845  	550.767  	-1	1	1
425	3	-293.084  	72.5144  	568.723  	-1	1	1
426	3	-309.805  	57.9206  	588.208  	-1	1	1
427	3	-320.65  	36.3723  	608.443  	-1	1	1
428	3	-318.287  	33.7895  	637.858  	-1	1	1
429	3	-303.871  	41.0032  	663.819  	-1	1	1
430	3	-282.206  	57.8543  	676.717  	-1	1	1
431	3	-260.938  	78.5202  	677.716  	-1	1	1
432	3	-233.097  	81.9628  	668.095  	-1	1	1
433	3	-211.091  	69.6263  	651.657  	-1	1	1
434	3	-197.74  	42.9885  	643.322  	-1	1	1
435	3	-185.934  	15.5452  	641.624  	-1	1	1
436	3	-187.3  	-14.5693  	640.238  	-1	1	1
437	3	-200.482  	-40.5963  	651.312  	-1	1	1
438	3	-204.968  	-48.4904  	680.39  	-1	1	1
439	3	-205.61  	-52.384  	710.655  	-1	1	1
440	3	-205.737  	-39.355  	738.218  	-1	1	1
441	3	-197.242  	-20.9558  	761.457  	-1	1	1
442	3	-184.423  	6.00229  	768.791  	-1	1	1
443	3	-160.464  	23.1839  	769.945  	-1	1	1
444	3	-139.235  	40.3739  	782.886  	-1	1	1
445	3	-113.456  	50.9657  	771.08  	-1	1	1
446	3	-88.0159  	53.7662  	755.167  	-1	1	1
447	3	-74.1147  	42.6946  	730.997  	-1	1	1
448	3	-79.8317  	37.7332  	700.424  	-1	1	1
449	3	-90.4281  	10.3489  	692.124  	-1	1	1
450	3	-92.1957  	-14.0878  	674.766  	-1	1	1
451	3	-103.499  	-38.8455  	659.188  	-1	1	1
452	3	-115.381  	-60.1332  	640.359  	-1	1	1
453	3	-135.248  	-80.6067  	631.347  	-1	1	1
454	3	-132.778  	-106.633  	614.416  	-1	1	1
455	3	-123.179  	-128.565  	594.75  	-1	1	1
456	3	-109.216  	-157.092  	590.753  	-1	1	1
457	3	-99.8173  	-184.843  	585.831  	-1	1	1
458	3	-87.4575  	-210.582  	572.597  	-1	1	1
459	3	-81.5832  	-230.518  	550.714  	-1	1	1
460	3	-64.9798  	-248.335  	533.205  	-1	1	1
461	3	-38.3028  	-262.874  	535.727  	-1	1	1
462	3	-20.0897  	-260.911  	559.592  	-1	1	1
463	3	-21.0027  	-241.443  	582.695  	-1	1	1
464	3	-25.6632  	-216.048  	599.33  	-1	1	1
465	3	-32.5406  	-187.95  	607.567  	-1	1	1
466	3	-32.4578  	-157.241  	602.911  	-1	1	1
467	3	-34.2013  	-127.922  	594.951  	-1	1	1
468	3	-36.5023  	-107.59  	571.34  	-1	1	1
469	3	-36.8457  	-110.527  	540.368  	-1	1	1
470	3	-27.3187  	-119.131  	510.792  	-1	1	1
471	3	-14.893  	-122.889  	482.53  	-1	1	1
472	3	-12.1304  	-132.518  	453.318  	-1	1	1
473	3	-4.22651  	-143.934  	425.398  	-1	1	1
474	3	0.0426328  	-169.796  	411.229  	-1	1	1
475	3	-10.1781  	-197.956  	407.078  	-1	1	1
476	3	-16.1353  	-226.327  	419.831  	-1	1	1
477	3	-13.0744  	-254.459  	435.568  	-1	1	1
478	3	-3.34919  	-273.954  	456.256  	-1	1	1
479	3	4.93132  	-253.463  	475.852  	-1	1	1
480	3	16.3599  	-226.616  	474.723  	-1	1	1
481	3	17.3566  	-197.06  	469.174  	-1	1	1
482	3	16.2816  	-174.009  	448.601  	-1	1	1
483	3	35.7414  	-178.5  	423.495  	-1	1	1
484	3	57.0512  	-184.98  	402.197  	-1	1	1
485	3	69.5722  	-202.91  	379.857  	-1	1	1
486	3	71.6387  	-218.781  	353.3  	-1	1	1
487	3	62.3175  	-231.634  	327.708  	-1	1	1
488	3	35.6486  	-242.201  	316.461  	-1	1	1
489	3	5.41454  	-250.843  	317.78  	-1	1	1
490	3	-23.8783  	-258.602  	321.252  	-1	1	1
491	3	-21.7772  	-243.208  	295.844  	-1	1	1
492	3	-3.98057  	-219.235  	286.39  	-1	1	1
493	3	13.5009  	-199.464  	268.596  	-1	1	1
494	3	34.7419  	-180.419  	258.021  	-1	1	1
495	3	35.6337  	-156.009  	238.92  	-1	1	1
496	3	18.536  	-141.539  	218.89  	-1	1	1
497	3	6.76358  	-125.931  	195.351  	-1	1	1
498	3	-14.3697  	-107.292  	183.667  	-1	1	1
499	3	-26.1244  	-82.106  	170.42  	-1	1	1
500	3	-38.2123  	-55.4132  	178.508  	-1	1	1
501	3	-40.9394  	-26.5898  	187.992  	-1	1	1
502	3	-26.6251  	-1.50281  	196.81  	-1	1	1
503	3	-8.22169  	23.8707  	198.758  	-1	1	1
504	3	3.71513  	51.2531  	191.948  	-1	1	1
505	3	22.0198  	43.4928  	168.785  	-1	1	1
506	3	41.6781  	20.8637  	157.661  	-1	1	1
507	3	54.5942  	-6.57585  	152.069  	-1	1	1
508	3	64.9728  	-22.2237  	176.92  	-1	1	1
509	3	65.6753  	-18.6454  	206.888  	-1	1	1
510	3	63.1507  	-7.44493  	235.72  	-1	1	1
511	3	60.8115  	3.94717  	263.468  	-1	1	1
512	3	63.8367  	-18.3835  	285.489  	-1	1	1
513	3	46.3426  	-42.6572  	290.93  	-1	1	1
514	3	19.6491  	-55.7583  	297.031  	-1	1	1
515	3	8.85057  	-51.3855  	325.641  	-1	1	1
516	3	15.1391  	-44.6773  	354.294  	-1	1	1
517	3	22.3886  	-32.9862  	380.842  	-1	1	1
518	3	34.7017  	-32.4994  	408.044  	-1	1	1
519	3	34.9583  	-44.1582  	436.442  	-1	1	1
520	3	28.0318  	-46.1206  	466.937  	-1	1	1
521	3	0.150491  	-44.2415  	479.361  	-1	1	1
522	3	-28.3838  	-32.989  	479.646  	-1	1	1
523	3	-54.489  	-21.3128  	469.153  	-1	1	1
524	3	-75.8887  	-1.58717  	458.39  	-1	1	1
525	3	-93.5237  	18.3706  	443.567  	-1	1	1
526	3	-118.299  	32.1563  	433.344  	-1	1	1
527	3	-120.614  	60.0524  	445.275  	-1	1	1
528	3	-113.883  	82.7709  	464.687  	-1	1	1
529	3	-100.752  	106.718  	479.636  	-1	1	1
530	3	-106.684  	136.399  	473.663  	-1	1	1
531	3	-102.515  	158.293  	453.98  	-1	1	1
532	3	-104.461  	180.359  	430.98  	-1	1	1
533	3	-101.319  	199.585  	406.237  	-1	1	1
534	3	-85.9686  	217.064  	385.621  	-1	1	1
535	3	-68.5922  	222.533  	361.33  	-1	1	1
536	3	-56.2819  	207.772  	338.556  	-1	1	1
537	3	-64.4763  	179.255  	344.957  	-1	1	1
538	3	-68.7047  	172.961  	314.795  	-1	1	1
539	3	-81.0517  	157.837  	290.523  	-1	1	1
540	3	-106.33  	162.037  	273.799  	-1	1	1
541	3	-138.235  	169.076  	273.919  	-1	1	1
542	3	-153.761  	150.605  	293.157  	-1	1	1
543	3	-143  	141.113  	320.191  	-1	1	1
544	3	-114.924  	129.877  	323.296  	-1	1	1
545	3	-85.1873  	125.007  	316.36  	-1	1	1
546	3	-58.9208  	135.28  	306.424  	-1	1	1
547	3	-32.2006  	150.911  	304.844  	-1	1	1
548	3	-8.24095  	170.426  	302.308  	-1	1	1
549	3	12.7033  	193.091  	308.691  	-1	1	1
550	3	34.3937  	213.895  	304.761  	-1	1	1
551	3	29.6819  	208.526  	275.338  	-1	1	1
552	3	31.4477  	187.571  	253.057  	-1	1	1
553	3	39.2588  	158.633  	247.908  	-1	1	1
554	3	53.8131  	130.687  	246.338  	-1	1	1
555	3	75.7964  	112.677  	235.036  	-1	1	1
556	3	105.423  	108.037  	225.111  	-1	1	1
557	3	132.211  	96.0242  	216.565  	-1	1	1
558	3	155.937  	103.701  	200.741  	-1	1	1
559	3	173.288  	124.609  	187.091  	-1	1	1
560	3	178.782  	143.572  	164.94  	-1	1	1
561	3	179.398  	157.238  	136.697  	-1	1	1
562	3	150.99  	164.077  	127.467  	-1	1	1
563	3	125.978  	154.991  	142.852  	-1	1	1
564	3	112.401  	132.044  	159.659  	-1	1	1
565	3	111.788  	102.313  	166.198  	-1	1	1
566	3	100.059  	74.9984  	159.847  	-1	1	1
567	3	100.941  	45.7367  	168.684  	-1	1	1
568	3	116.444  	34.2009  	191.218  	-1	1	1
569	3	135.119  	58.6938  	187.661  	-1	1	1
570	3	158.09  	75.9643  	175.045  	-1	1	1
571	3	188.557  	76.4994  	169.884  	-1	1	1
572	3	218.488  	79.1635  	178.213  	-1	1	1
573	3	234.802  	62.3893  	198.151  	-1	1	1
574	3	231.754  	43.81  	174.203  	-1	1	1
575	3	229.261  	36.6797  	144.839  	-1	1	1
576	3	228.203  	43.4041  	114.201  	-1	1	1
577	3	232.561  	59.8999  	88.6913  	-1	1	1
578	3	248.146  	64.446  	61.7328  	-1	1	1
579	3	261.787  	51.8709  	38.1422  	-1	1	1
580	3	273.757  	35.269  	15.1167  	-1	1	1
581	3	298.515  	17.2019  	11.0326  	-1	1	1
582	3	327.673  	12.1699  	18.5501  	-1	1	1
583	3	349.781  	15.7698  	40.3206  	-1	1	1
584	3	348.119  	35.5788  	64.1336  	-1	1	1
585	3	328.865  	52.5818  	80.7141  	-1	1	1
586	3	314.027  	60.7847  	105.953  	-1	1	1
587	3	303.397  	61.6296  	134.783  	-1	1	1
588	3	327.581  	45.149  	140.116  	-1	1	1
589	3	327.744  	17.1871  	127.462  	-1	1	1
590	3	311.395  	-9.39632  	129.623  	-1	1	1
591	3	311.793  	-25.9573  	156.079  	-1	1	1
592	3	313.701  	-32.4178  	186.343  	-1	1	1
593	3	311.258  	-27.3217  	216.586  	-1	1	1
594	3	314.147  	-18.5721  	244.611  	-1	1	1
595	3	316.629  	-7.66062  	272.765  	-1	1	1
596	3	306.331  	10.5165  	293.808  	-1	1	1
597	3	280.138  	22.9577  	304.188  	-1	1	1
598	3	250.749  	19.4265  	310.308  	-1	1	1
599	3	231.768  	-2.02463  	317.582  	-1	1	1
600	3	211.254  	-24.8113  	328.384  	-1	1	1
601	3	193.821  	-49.9266  	328.032  	-1	1	1
602	3	175.321  	-72.9763  	337.222  	-1	1	1
603	3	171.101  	-97.1795  	355.634  	-1	1	1
604	3	186.717  	-113.335  	375.251  	-1	1	1
605	3	209.336  	-117.062  	395.841  	-1	1	1
606	3	238.796  	-111.282  	395.956  	-1	1	1
607	3	261.49  	-107.03  	377.731  	-1	1	1
608	3	268.728  	-98.6074  	349.718  	-1	1	1
609	3	277.759  	-90.4145  	322.026  	-1	1	1
610	3	288.876  	-90.2859  	293.832  	-1	1	1
611	3	294.594  	-96.167  	264.62  	-1	1	1
612	3	284.597  	-95.627  	235.849  	-1	1	1
613	3	266.858  	-85.1123  	212.087  	-1	1	1
614	3	239.025  	-77.9163  	202.788  	-1	1	1
615	3	214.964  	-57.2624  	202.916  	-1	1	1
616	3	194.311  	-33.1056  	209.82  	-1	1	1
617	3	184.361  	-10.8998  	227.148  	-1	1	1
618	3	181.474  	-3.13702  	256.463  	-1	1	1
619	3	195.194  	-7.83761  	283.855  	-1	1	1
620	3	221.46  	-22.3712  	289.306  	-1	1	1
621	3	248.516  	-34.2631  	284.803  	-1	1	1
622	3	270.934  	-45.3333  	268.64  	-1	1	1
623	3	297.214  	-52.2065  	253.769  	-1	1	1
624	3	326.829  	-54.4315  	265.444  	-1	1	1
625	3	353.042  	-40.1362  	266.978  	-1	1	1
626	3	369.815  	-25.9262  	288.118  	-1	1	1
627	3	374.658  	-9.03802  	312.999  	-1	1	1
628	3	375.558  	5.63669  	339.637  	-1	1	1
629	3	383.699  	25.7932  	361.153  	-1	1	1
630	3	398.555  	48.8942  	372.304  	-1	1	1
631	3	416.154  	52.9676  	346.915  	-1	1	1
632	3	426.541  	61.069  	320.532  	-1	1	1
633	3	416.023  	77.2545  	297.994  	-1	1	1
634	3	393.527  	88.1425  	281.914  	-1	1	1
635	3	393.601  	73.078  	255.96  	-1	1	1
636	3	411.232  	51.7874  	244.238  	-1	1	1
637	3	440.089  	44.1413  	239.995  	-1	1	1
638	3	464.744  	47.2115  	222.483  	-1	1	1
639	3	473.79  	69.3741  	202.645  	-1	1	1
640	3	470.8  	99.2946  	195.987  	-1	1	1
641	3	462.764  	128.065  	204.311  	-1	1	1
642	3	460.184  	155.122  	216.728  	-1	1	1
643	3	451.68  	179.569  	200.596  	-1	1	1
644	3	441.502  	199.713  	179.936  	-1	1	1
645	3	438.296  	209.036  	151.312  	-1	1	1
646	3	450.347  	214.503  	124.326  	-1	1	1
647	3	468.584  	214.442  	101.178  	-1	1	1
648	3	481.793  	231.533  	80.5467  	-1	1	1
649	3	500.241  	253.633  	72.8661  	-1	1	1
650	3	505.412  	271.434  	49.8603  	-1	1	1
651	3	501.7  	287.874  	24.4882  	-1	1	1
652	3	495.598  	309.015  	3.03897  	-1	1	1
653	3	495.364  	327.922  	-19.8584  	-1	1	1
654	3	497.116  	339.048  	-49.3444  	-1	1	1
655	3	499.056  	343.836  	-79.933  	-1	1	1
656	3	497.764  	346.61  	-109.752  	-1	1	1
657	3	489.111  	357.037  	-136.913  	-1	1	1
658	3	470.254  	351.345  	-160.108  	-1	1	1
659	3	453.601  	337.129  	-180.004  	-1	1	1
660	3	430.388  	330.364  	-198.775  	-1	1	1
661	3	407.959  	325.318  	-220.321  	-1	1	1
662	3	379.002  	325.827  	-228.183  	-1	1	1
663	3	357.776  	303.948  	-227.606  	-1	1	1
664	3	383.317  	286.997  	-230.026  	-1	1	1
665	3	402.862  	272.716  	-249.922  	-1	1	1
666	3	414.114  	255.424  	-271.904  	-1	1	1
667	3	419.442  	240.382  	-297.358  	-1	1	1
668	3	428.471  	222.992  	-321.124  	-1	1	1
669	3	434.496  	205.901  	-345.792  	-1	1	1
670	3	445.591  	189.768  	-369.864  	-1	1	1
671	3	445.982  	162.881  	-383.655  	-1	1	1
672	3	441.601  	135.207  	-394.535  	-1	1	1
673	3	443.586  	104.205  	-399.984  	-1	1	1
674	3	442.717  	79.2654  	-382.301  	-1	1	1
675	3	422.94  	81.1119  	-359.292  	-1	1	1
676	3	396.753  	83.4637  	-342.665  	-1	1	1
677	3	367.607  	81.4543  	-337.049  	-1	1	1
678	3	341.755  	71.8075  	-324.583  	-1	1	1
679	3	322.092  	68.903  	-301.689  	-1	1	1
680	3	330.477  	82.0198  	-275.095  	-1	1	1
681	3	346.925  	108.596  	-271.81  	-1	1	1
682	3	362.466  	122.837  	-295.714  	-1	1	1
683	3	371.604  	119.513  	-324.277  	-1	1	1
684	3	380.683  	115.863  	-353.248  	-1	1	1
685	3	388.617  	102.751  	-378.389  	-1	1	1
686	3	407.168  	90.0905  	-399.884  	-1	1	1
687	3	425.885  	74.3994  	-417.393  	-1	1	1
688	3	440.194  	49.5172  	-428.35  	-1	1	1