# LAMMPS data file for replicating chromosomes formed of rigid body monomers

7612		atoms
8		atom types
5050		ellipsoids
5000		bonds
2		bond types
10000		angles
4		angle types


-1140	1140	xlo xhi
-1140	1140	ylo yhi
-1140	1140	zlo zhi

Atoms # atom-ID atom-type x y z molecule-ID ellipsoid-flag density

1	5	473.09  	708.796  	-51.8552  	-1	1	1
2	3	501.298  	708.728  	-39.5832  	-1	1	1
3	3	528.272  	696.4  	-29.9106  	-1	1	1
4	3	550.155  	677.876  	-21.117  	-1	1	1
5	3	568.944  	662.684  	-1.49737  	-1	1	1
6	3	587.065  	652.166  	22.3123  	-1	1	1
7	3	596.34  	635.382  	46.1108  	-1	1	1
8	3	602.146  	607.611  	58.07  	-1	1	1
9	3	598.605  	579.393  	66.3399  	-1	1	1
10	3	594.108  	549.057  	71.991  	-1	1	1
11	3	607.098  	521.196  	78.9672  	-1	1	1
12	3	610.068  	491.277  	85.57  	-1	1	1
13	3	594.051  	465.642  	90.7246  	-1	1	1
14	3	572.52  	445.303  	95.5284  	-1	1	1
15	3	561.717  	419.362  	107.06  	-1	1	1
16	3	570.41  	390.125  	112.627  	-1	1	1
17	3	591.349  	367.732  	114.757  	-1	1	1
18	3	608.133  	342.798  	116.859  	-1	1	1
19	3	619.594  	314.987  	119.739  	-1	1	1
20	3	633.146  	288.389  	124.969  	-1	1	1
21	3	662.942  	280.815  	121.149  	-1	1	1
22	3	690.882  	272.394  	110.595  	-1	1	1
23	3	719.98  	270.527  	99.8619  	-1	1	1
24	3	746.185  	269.37  	84.8364  	-1	1	1
25	3	767.695  	270.674  	63.5767  	-1	1	1
26	3	780.085  	266.192  	34.9062  	-1	1	1
27	3	793.198  	257.098  	8.48624  	-1	1	1
28	3	800.724  	246.292  	-19.7057  	-1	1	1
29	3	812.626  	228.772  	-41.7087  	-1	1	1
30	3	815.93  	213.451  	-68.6963  	-1	1	1
31	3	819.126  	192.165  	-91.0023  	-1	1	1
32	3	815.737  	171.764  	-113.447  	-1	1	1
33	3	800.606  	149.937  	-127.231  	-1	1	1
34	3	792.58  	124.52  	-141.834  	-1	1	1
35	3	787.322  	102.902  	-163.352  	-1	1	1
36	3	783.457  	75.5091  	-176.02  	-1	1	1
37	3	775.831  	46.7215  	-182.324  	-1	1	1
38	3	770.046  	16.744  	-180.826  	-1	1	1
39	3	766.257  	-10.5721  	-169.487  	-1	1	1
40	3	763.843  	-33.9071  	-151.031  	-1	1	1
41	3	770.613  	-53.4129  	-129.477  	-1	1	1
42	3	773.662  	-72.9127  	-104.834  	-1	1	1
43	3	767.902  	-89.0214  	-79.7489  	-1	1	1
44	3	764.425  	-102.492  	-51.7792  	-1	1	1
45	3	755.795  	-117.963  	-27.1354  	-1	1	1
46	3	753.57  	-126.183  	1.98165  	-1	1	1
47	3	761.194  	-145.861  	24.6801  	-1	1	1
48	3	784.166  	-163.773  	35.2158  	-1	1	1
49	3	809.331  	-173.027  	50.4363  	-1	1	1
50	3	839.134  	-169.407  	53.6126  	-1	1	1
51	3	866.272  	-157.57  	47.1207  	-1	1	1
52	3	877.326  	-136.507  	27.6201  	-1	1	1
53	3	879.969  	-107.031  	28.8181  	-1	1	1
54	3	882.097  	-75.48  	30.742  	-1	1	1
55	3	871.726  	-46.1285  	33.4583  	-1	1	1
56	3	878.25  	-21.9258  	48.9238  	-1	1	1
57	3	874.323  	-4.11518  	73.0714  	-1	1	1
58	3	862.899  	-5.61575  	101.743  	-1	1	1
59	3	848.441  	-12.4752  	127.029  	-1	1	1
60	3	831.285  	-16.7289  	152.252  	-1	1	1
61	3	808.945  	-10.9407  	172.34  	-1	1	1
62	3	782.563  	5.13755  	179.141  	-1	1	1
63	3	761.179  	26.7049  	182.185  	-1	1	1
64	3	740.616  	49.632  	181.718  	-1	1	1
65	3	712.14  	55.5778  	194.338  	-1	1	1
66	3	681.148  	55.2237  	193.396  	-1	1	1
67	3	649.946  	59.3148  	192.458  	-1	1	1
68	3	623.527  	66.8358  	178.555  	-1	1	1
69	3	594.262  	75.796  	183.084  	-1	1	1
70	3	571.23  	93.8047  	191.367  	-1	1	1
71	3	556.991  	120.397  	195.271  	-1	1	1
72	3	550.271  	147.273  	209.077  	-1	1	1
73	3	562.464  	174.086  	218.221  	-1	1	1
74	3	580.819  	199.158  	221.382  	-1	1	1
75	3	604.09  	215.204  	232.978  	-1	1	1
76	3	618.685  	234.511  	250.948  	-1	1	1
77	3	643.485  	245.603  	265.131  	-1	1	1
78	3	668.073  	252.054  	282.062  	-1	1	1
79	3	682.83  	249.943  	309.521  	-1	1	1
80	3	704.251  	249.538  	332.612  	-1	1	1
81	3	727.356  	251.425  	352.348  	-1	1	1
82	3	741.584  	238.67  	374.511  	-1	1	1
83	3	749.69  	222.455  	399.717  	-1	1	1
84	3	742.785  	202.02  	422.301  	-1	1	1
85	3	734.302  	179.23  	441.354  	-1	1	1
86	3	728.609  	150.802  	452.65  	-1	1	1
87	3	729.266  	119.701  	449.581  	-1	1	1
88	3	735.703  	89.3666  	451.625  	-1	1	1
89	3	756.641  	79.4881  	431.413  	-1	1	1
90	3	773.693  	65.539  	408.331  	-1	1	1
91	3	783.911  	49.5325  	384.635  	-1	1	1
92	3	800.582  	38.1691  	362.147  	-1	1	1
93	3	796.946  	24.6586  	335.932  	-1	1	1
94	3	779.477  	5.49364  	319.98  	-1	1	1
95	3	770.993  	-16.3887  	300.79  	-1	1	1
96	3	757.475  	-33.3851  	280.058  	-1	1	1
97	3	744.656  	-59.3272  	269.166  	-1	1	1
98	3	727.902  	-79.2417  	253.496  	-1	1	1
99	3	701.882  	-94.9949  	243.759  	-1	1	1
100	3	676.324  	-112.761  	241.085  	-1	1	1
101	3	653.165  	-130.826  	244.885  	-1	1	1
102	3	623.713  	-136.522  	251.434  	-1	1	1
103	3	596.177  	-134.582  	267.624  	-1	1	1
104	3	571.794  	-130.01  	286.269  	-1	1	1
105	3	556.991  	-130.713  	313.049  	-1	1	1
106	3	547.265  	-141.997  	338.804  	-1	1	1
107	3	545.179  	-163.66  	360.759  	-1	1	1
108	3	551.16  	-188.663  	375.451  	-1	1	1
109	3	543.938  	-212.213  	391.836  	-1	1	1
110	3	538.072  	-234.169  	411.31  	-1	1	1
111	3	544.306  	-244.503  	439.954  	-1	1	1
112	3	546.313  	-253.613  	468.338  	-1	1	1
113	3	569.021  	-264.581  	485.492  	-1	1	1
114	3	596.477  	-275.771  	492.441  	-1	1	1
115	3	620.369  	-279.472  	510.705  	-1	1	1
116	3	646.268  	-294.777  	510.529  	-1	1	1
117	3	664.28  	-313.036  	492.482  	-1	1	1
118	3	667.675  	-329.053  	466.895  	-1	1	1
119	3	664.42  	-334.499  	435.878  	-1	1	1
120	3	659.09  	-352.503  	412.695  	-1	1	1
121	3	645.12  	-367.497  	390.216  	-1	1	1
122	3	625.578  	-358.377  	368.482  	-1	1	1
123	3	603.282  	-358.739  	347.156  	-1	1	1
124	3	580.953  	-364.084  	327.165  	-1	1	1
125	3	553.039  	-359.655  	315.942  	-1	1	1
126	3	524.977  	-364.305  	305.287  	-1	1	1
127	3	500.3  	-368.251  	288.759  	-1	1	1
128	3	471.037  	-370.747  	281.628  	-1	1	1
129	3	442.795  	-357.673  	273.932  	-1	1	1
130	3	414.419  	-349.433  	262  	-1	1	1
131	3	386.883  	-337.791  	254.746  	-1	1	1
132	3	363.048  	-319.181  	255.484  	-1	1	1
133	3	339.411  	-299.322  	257.604  	-1	1	1
134	3	321.063  	-276.501  	266.05  	-1	1	1
135	3	296.98  	-258.166  	269.091  	-1	1	1
136	3	272.457  	-241.261  	264.828  	-1	1	1
137	3	249.63  	-225.688  	251.786  	-1	1	1
138	3	228.024  	-202.981  	252.983  	-1	1	1
139	3	206.036  	-181.864  	253.558  	-1	1	1
140	3	187.818  	-156.855  	247.371  	-1	1	1
141	3	166.45  	-133.297  	247.755  	-1	1	1
142	3	159.438  	-106.818  	232.537  	-1	1	1
143	3	161.619  	-78.4035  	221.958  	-1	1	1
144	3	178.085  	-54.4027  	228.711  	-1	1	1
145	3	206.336  	-45.3499  	235.237  	-1	1	1
146	3	231.779  	-56.7015  	247.62  	-1	1	1
147	3	246.529  	-74.2897  	266.763  	-1	1	1
148	3	269.078  	-97.2842  	267.081  	-1	1	1
149	3	291.043  	-114.218  	281.005  	-1	1	1
150	3	293.423  	-135.192  	302.713  	-1	1	1
151	3	305.607  	-152.512  	325.965  	-1	1	1
152	3	318.443  	-168.382  	347.612  	-1	1	1
153	3	340.138  	-178.799  	365.615  	-1	1	1
154	3	367.957  	-173.165  	376.509  	-1	1	1
155	3	392.362  	-168.439  	394.183  	-1	1	1
156	3	410.265  	-155.96  	416.029  	-1	1	1
157	3	400.486  	-150.388  	445.717  	-1	1	1
158	3	398.754  	-128.714  	467.885  	-1	1	1
159	3	389.808  	-107.319  	489.042  	-1	1	1
160	3	369.829  	-86.8463  	501.402  	-1	1	1
161	3	339.954  	-82.4053  	499.072  	-1	1	1
162	3	310.177  	-88.3866  	495.167  	-1	1	1
163	3	286.14  	-103.735  	481.849  	-1	1	1
164	3	261.905  	-104.438  	460.183  	-1	1	1
165	3	237.771  	-106.371  	442.213  	-1	1	1
166	3	216.759  	-96.6768  	422.285  	-1	1	1
167	3	198.948  	-93.5582  	397.36  	-1	1	1
168	3	172.726  	-101.503  	380.781  	-1	1	1
169	3	147.563  	-109.433  	363.836  	-1	1	1
170	3	122.36  	-113.46  	346.184  	-1	1	1
171	3	96.9774  	-122.996  	330.127  	-1	1	1
172	3	76.0474  	-143.701  	321.991  	-1	1	1
173	3	61.2203  	-167.641  	313.676  	-1	1	1
174	3	48.0602  	-196.809  	312.676  	-1	1	1
175	3	41.3626  	-227.165  	312.551  	-1	1	1
176	3	43.6218  	-255.747  	323.092  	-1	1	1
177	3	57.02  	-283.878  	329.74  	-1	1	1
178	3	58.1028  	-307.658  	349.301  	-1	1	1
179	3	50.5428  	-319.949  	376.153  	-1	1	1
180	3	59.9732  	-333.181  	402.828  	-1	1	1
181	3	82.2706  	-331.916  	425.339  	-1	1	1
182	3	108.607  	-327.81  	441.773  	-1	1	1
183	3	125.448  	-320.59  	466.065  	-1	1	1
184	3	150.537  	-308.279  	477.366  	-1	1	1
185	3	172.716  	-288.319  	481.47  	-1	1	1
186	3	181.923  	-271.519  	506.001  	-1	1	1
187	3	195.969  	-260.076  	530.194  	-1	1	1
188	3	202.533  	-233.96  	544.529  	-1	1	1
189	3	193.219  	-214.702  	564.937  	-1	1	1
190	3	190.391  	-193.258  	585.956  	-1	1	1
191	3	180.011  	-172.334  	607.802  	-1	1	1
192	3	169.461  	-161.314  	633.913  	-1	1	1
193	3	148.999  	-153.941  	655.425  	-1	1	1
194	3	132.904  	-158.886  	681.785  	-1	1	1
195	3	111.134  	-160.475  	703.845  	-1	1	1
196	3	97.3898  	-164.743  	730.51  	-1	1	1
197	3	79.399  	-167.335  	755.484  	-1	1	1
198	3	56.6199  	-174.718  	773.689  	-1	1	1
199	3	29.1152  	-189.322  	776.825  	-1	1	1
200	3	-0.124933  	-197.134  	780.573  	-1	1	1
201	3	-27.9104  	-207.659  	784.214  	-1	1	1
202	3	-50.5501  	-225.986  	773.515  	-1	1	1
203	3	-77.0202  	-240.396  	767.196  	-1	1	1
204	3	-97.3654  	-261.915  	761.061  	-1	1	1
205	3	-111.159  	-289.242  	756.97  	-1	1	1
206	3	-104.912  	-318.928  	761.579  	-1	1	1
207	3	-102.973  	-349.099  	766.876  	-1	1	1
208	3	-88.1828  	-375.289  	772.596  	-1	1	1
209	3	-62.687  	-389.062  	780.064  	-1	1	1
210	3	-37.7995  	-406.049  	782.74  	-1	1	1
211	3	-7.87872  	-404.666  	783.323  	-1	1	1
212	3	20.6489  	-395.487  	787.164  	-1	1	1
213	3	44.2772  	-376.262  	782.055  	-1	1	1
214	3	57.8383  	-350.385  	768.863  	-1	1	1
215	3	64.8513  	-327.095  	751.93  	-1	1	1
216	3	64.6429  	-308.218  	728.79  	-1	1	1
217	3	67.5301  	-296.723  	699.333  	-1	1	1
218	3	64.4418  	-288.385  	669.161  	-1	1	1
219	3	52.6107  	-294.746  	641.277  	-1	1	1
220	3	45.4543  	-297.16  	611.253  	-1	1	1
221	3	51.1975  	-310.092  	583.815  	-1	1	1
222	3	64.9783  	-312.958  	555.992  	-1	1	1
223	3	81.0807  	-331.039  	537.455  	-1	1	1
224	3	98.2169  	-352.08  	525.046  	-1	1	1
225	3	120.502  	-369.596  	512.857  	-1	1	1
226	3	145.794  	-380.072  	499.43  	-1	1	1
227	3	172.837  	-393  	493.655  	-1	1	1
228	3	195.624  	-412.697  	500.077  	-1	1	1
229	3	214.758  	-433.115  	512.824  	-1	1	1
230	3	229.74  	-456.198  	523.535  	-1	1	1
231	3	241.609  	-477.87  	541.058  	-1	1	1
232	3	254.244  	-472.697  	568.519  	-1	1	1
233	3	254.549  	-469.418  	598.262  	-1	1	1
234	3	245.884  	-474.404  	626.912  	-1	1	1
235	3	230.644  	-482.678  	651.611  	-1	1	1
236	3	208.835  	-487.015  	672.44  	-1	1	1
237	3	180.606  	-481.922  	686.322  	-1	1	1
238	3	151.871  	-488.01  	694.975  	-1	1	1
239	3	128.491  	-475.302  	714.286  	-1	1	1
240	3	110.734  	-462.257  	736.323  	-1	1	1
241	3	95.4223  	-437.658  	746.872  	-1	1	1
242	3	93.2621  	-411.019  	764.721  	-1	1	1
243	3	100.404  	-389.976  	786.91  	-1	1	1
244	3	98.5373  	-359.685  	789.445  	-1	1	1
245	3	104.709  	-330.969  	794.992  	-1	1	1
246	3	118.149  	-308.07  	809.12  	-1	1	1
247	3	137.181  	-290.705  	824.579  	-1	1	1
248	3	161.007  	-276.857  	812.317  	-1	1	1
249	3	187.257  	-268.039  	800.213  	-1	1	1
250	3	211.743  	-268.993  	781.836  	-1	1	1
251	3	234.977  	-269.003  	762.025  	-1	1	1
252	3	255.488  	-272.202  	740.887  	-1	1	1
253	3	275.558  	-275.516  	717.519  	-1	1	1
254	3	293.341  	-274.339  	693.58  	-1	1	1
255	3	303.563  	-257.455  	670.44  	-1	1	1
256	3	305.096  	-240.661  	644.495  	-1	1	1
257	3	305.636  	-232.413  	614.764  	-1	1	1
258	3	303.262  	-225.055  	585.621  	-1	1	1
259	3	297.94  	-227.371  	554.876  	-1	1	1
260	3	288.082  	-239.44  	527.785  	-1	1	1
261	3	261.748  	-250.941  	519.174  	-1	1	1
262	3	236.842  	-256.718  	503.509  	-1	1	1
263	3	215.718  	-270.271  	484.981  	-1	1	1
264	3	211.511  	-288.574  	463.55  	-1	1	1
265	3	205.663  	-307.729  	440.828  	-1	1	1
266	3	210.805  	-321.939  	414.48  	-1	1	1
267	3	232.491  	-340.158  	403.255  	-1	1	1
268	3	255.619  	-358.915  	407.429  	-1	1	1
269	3	273.134  	-366.513  	429.845  	-1	1	1
270	3	299.143  	-370.773  	446.081  	-1	1	1
271	3	328.055  	-376.535  	455.846  	-1	1	1
272	3	354.887  	-378.17  	469.96  	-1	1	1
273	3	383.727  	-373.853  	480.469  	-1	1	1
274	3	401.277  	-368.885  	505.483  	-1	1	1
275	3	417.757  	-365.219  	530.829  	-1	1	1
276	3	432.096  	-361.742  	557.325  	-1	1	1
277	3	446.595  	-355.452  	584.52  	-1	1	1
278	3	450.127  	-347.016  	613.385  	-1	1	1
279	3	449.606  	-337.611  	642.958  	-1	1	1
280	3	440.375  	-332.162  	671.669  	-1	1	1
281	3	420.925  	-321.139  	693.689  	-1	1	1
282	3	402.995  	-305.437  	713.778  	-1	1	1
283	3	376.671  	-294.041  	723.084  	-1	1	1
284	3	355.89  	-276.813  	736.612  	-1	1	1
285	3	330.911  	-269.405  	754.57  	-1	1	1
286	3	304.166  	-255.463  	761.484  	-1	1	1
287	3	290.134  	-229.165  	764.396  	-1	1	1
288	3	289.665  	-199.831  	776.523  	-1	1	1
289	3	283.506  	-169.639  	781.789  	-1	1	1
290	3	272.932  	-141.231  	790.082  	-1	1	1
291	3	267.422  	-111.627  	798.537  	-1	1	1
292	3	269.844  	-81.6172  	803.129  	-1	1	1
293	3	272.359  	-51.0698  	805.073  	-1	1	1
294	3	276.946  	-21.2267  	799.541  	-1	1	1
295	3	294.178  	-2.19558  	783.321  	-1	1	1
296	3	302.291  	17.6682  	761.093  	-1	1	1
297	3	313.976  	29.4905  	736.789  	-1	1	1
298	3	333.535  	28.4261  	712.764  	-1	1	1
299	3	348.303  	38.8025  	688.14  	-1	1	1
300	3	363.789  	47.2482  	663.134  	-1	1	1
301	3	371.564  	31.2377  	637.876  	-1	1	1
302	3	375.434  	19.1129  	610.731  	-1	1	1
303	3	368.405  	8.41827  	582.746  	-1	1	1
304	3	368.777  	-10.3515  	557.982  	-1	1	1
305	3	357.377  	-29.8177  	536.451  	-1	1	1
306	3	342.179  	-55.7198  	532.199  	-1	1	1
307	3	338.364  	-84.5934  	541.654  	-1	1	1
308	3	327.163  	-114.489  	542.931  	-1	1	1
309	3	314.421  	-141.405  	534.584  	-1	1	1
310	3	291.444  	-159.766  	542.435  	-1	1	1
311	3	268.077  	-178.768  	554.713  	-1	1	1
312	3	255.922  	-204.229  	566.591  	-1	1	1
313	3	238.033  	-221.824  	583.626  	-1	1	1
314	3	233.779  	-250.963  	594.894  	-1	1	1
315	3	226.978  	-273.819  	614.48  	-1	1	1
316	3	216.027  	-273.353  	642.497  	-1	1	1
317	3	210.396  	-264.699  	671.975  	-1	1	1
318	3	207.598  	-249.043  	698.61  	-1	1	1
319	3	211.334  	-234.032  	724.053  	-1	1	1
320	3	215.156  	-215.638  	748.75  	-1	1	1
321	3	220.442  	-198.483  	773.171  	-1	1	1
322	3	212.46  	-184.085  	799.407  	-1	1	1
323	3	210.449  	-172.982  	828.255  	-1	1	1
324	3	194.624  	-167.121  	854.469  	-1	1	1
325	3	165.545  	-160.861  	863.055  	-1	1	1
326	3	136.286  	-154.725  	867.425  	-1	1	1
327	3	106.822  	-145.78  	866.644  	-1	1	1
328	3	78.6102  	-139.658  	875.284  	-1	1	1
329	3	49.3208  	-142.846  	868.881  	-1	1	1
330	3	20.0146  	-144.595  	860.69  	-1	1	1
331	3	-7.81141  	-153.285  	860.45  	-1	1	1
332	3	-39.1571  	-153.869  	860.509  	-1	1	1
333	3	-67.5441  	-151.667  	849.627  	-1	1	1
334	3	-90.1917  	-160.976  	830.642  	-1	1	1
335	3	-113.119  	-163.383  	811.922  	-1	1	1
336	3	-115.489  	-156.176  	782.866  	-1	1	1
337	3	-103.742  	-145.203  	756.668  	-1	1	1
338	3	-83.9436  	-129.397  	739.292  	-1	1	1
339	3	-65.8798  	-105.929  	735.093  	-1	1	1
340	3	-54.1087  	-79.5954  	745.66  	-1	1	1
341	3	-54.5117  	-49.6923  	748.671  	-1	1	1
342	3	-51.8564  	-24.7988  	766.155  	-1	1	1
343	3	-35.9483  	-0.938769  	776.747  	-1	1	1
344	3	-17.4836  	16.2078  	795.078  	-1	1	1
345	3	1.99191  	39.4698  	805.254  	-1	1	1
346	3	25.1671  	56.4568  	818.398  	-1	1	1
347	3	51.727  	54.8336  	835.789  	-1	1	1
348	3	74.7558  	68.3458  	850.147  	-1	1	1
349	3	104.626  	62.8589  	859.337  	-1	1	1
350	3	133.488  	65.3832  	866.02  	-1	1	1
351	3	162.398  	56.238  	864.459  	-1	1	1
352	3	182.25  	31.9091  	863.315  	-1	1	1
353	3	199.111  	13.0598  	847.204  	-1	1	1
354	3	213.694  	-3.59661  	825.266  	-1	1	1
355	3	225.089  	-28.1257  	811.402  	-1	1	1
356	3	219.63  	-52.8088  	793.702  	-1	1	1
357	3	210.195  	-77.127  	778.985  	-1	1	1
358	3	198.695  	-71.7291  	750.053  	-1	1	1
359	3	194.825  	-56.3742  	723.206  	-1	1	1
360	3	182.567  	-38.2374  	700.592  	-1	1	1
361	3	171.247  	-12.1605  	688.43  	-1	1	1
362	3	164.064  	16.3947  	685.259  	-1	1	1
363	3	152.816  	44.4  	678.57  	-1	1	1
364	3	148.663  	75.7488  	676.516  	-1	1	1
365	3	142.639  	105.417  	669.611  	-1	1	1
366	3	145.72  	135.026  	662.243  	-1	1	1
367	3	156.63  	162.414  	654.908  	-1	1	1
368	3	170.997  	188.725  	658.345  	-1	1	1
369	3	192.426  	210.859  	658.316  	-1	1	1
370	3	209.304  	236.456  	656.448  	-1	1	1
371	3	226.428  	260.356  	650.549  	-1	1	1
372	3	237.778  	277.833  	627.84  	-1	1	1
373	3	245.128  	284.494  	599.316  	-1	1	1
374	3	235.763  	287.353  	568.125  	-1	1	1
375	3	217.237  	274.243  	547.653  	-1	1	1
376	3	193.778  	255.746  	543.583  	-1	1	1
377	3	181.397  	227.069  	542.351  	-1	1	1
378	3	166.474  	202.264  	550.673  	-1	1	1
379	3	161.562  	172.094  	552.805  	-1	1	1
380	3	138.848  	150.847  	555.649  	-1	1	1
381	3	110.457  	142.698  	550.891  	-1	1	1
382	3	84.3335  	125.07  	551.006  	-1	1	1
383	3	61.6758  	104.173  	549.097  	-1	1	1
384	3	48.1922  	76.829  	548.382  	-1	1	1
385	3	37.5861  	47.0138  	546.766  	-1	1	1
386	3	20.8992  	21.8156  	541.317  	-1	1	1
387	3	11.7428  	-7.53505  	533.647  	-1	1	1
388	3	-7.68422  	-20.5918  	514.418  	-1	1	1
389	3	-33.2842  	-33.1194  	501.342  	-1	1	1
390	3	-46.1602  	-37.626  	473.446  	-1	1	1
391	3	-51.5207  	-22.9315  	448.367  	-1	1	1
392	3	-43.1338  	-2.48446  	428.223  	-1	1	1
393	3	-34.4532  	22.2449  	415.171  	-1	1	1
394	3	-31.4238  	49.7082  	402.882  	-1	1	1
395	3	-22.8827  	78.8868  	400.478  	-1	1	1
396	3	-20.0136  	110.347  	402.284  	-1	1	1
397	3	-30.456  	137.925  	409.257  	-1	1	1
398	3	-29.0852  	164.021  	425.317  	-1	1	1
399	3	-7.2767  	182.957  	434.205  	-1	1	1
400	3	20.1673  	192.292  	449.496  	-1	1	1
401	3	49.1415  	204.516  	456.659  	-1	1	1
402	3	69.2524  	222.633  	472.658  	-1	1	1
403	3	94.0737  	239.491  	472.487  	-1	1	1
404	3	120.316  	248.517  	458.616  	-1	1	1
405	3	146.137  	262.562  	449.684  	-1	1	1
406	3	171.455  	275.329  	437.619  	-1	1	1
407	3	186.778  	290.438  	415.854  	-1	1	1
408	3	212.996  	304.203  	404.379  	-1	1	1
409	3	237.435  	311.193  	387.668  	-1	1	1
410	3	254.482  	298.05  	366.644  	-1	1	1
411	3	278.116  	290.577  	348.02  	-1	1	1
412	3	301.886  	290.465  	327.425  	-1	1	1
413	3	312.439  	287.188  	299.017  	-1	1	1
414	3	315.523  	298.759  	272.35  	-1	1	1
415	3	321.097  	319.985  	250.279  	-1	1	1
416	3	328.93  	348.884  	239.523  	-1	1	1
417	3	332.98  	375.153  	229.163  	-1	1	1
418	3	329.835  	402.827  	217.086  	-1	1	1
419	3	327.179  	433.576  	215.54  	-1	1	1
420	3	318.258  	461.646  	210.728  	-1	1	1
421	3	294.842  	480.243  	219.946  	-1	1	1
422	3	278.735  	504.151  	230.115  	-1	1	1
423	3	259.016  	511.737  	251.004  	-1	1	1
424	3	236.862  	514.553  	271.752  	-1	1	1
425	3	207.933  	512.377  	282.127  	-1	1	1
426	3	189.203  	492.306  	293.951  	-1	1	1
427	3	169.989  	470.725  	307.4  	-1	1	1
428	3	161.443  	446.747  	323.592  	-1	1	1
429	3	146.444  	423.037  	333.119  	-1	1	1
430	3	131.395  	402.755  	351.318  	-1	1	1
431	3	116.22  	394.471  	376.081  	-1	1	1
432	3	106.435  	381.15  	403.075  	-1	1	1
433	3	108.154  	368.136  	430.257  	-1	1	1
434	3	107.402  	358.302  	458.603  	-1	1	1
435	3	90.9691  	353.897  	484.552  	-1	1	1
436	3	75.0727  	362.545  	509.602  	-1	1	1
437	3	52.6501  	371.851  	525.1  	-1	1	1
438	3	27.5396  	384.356  	537.583  	-1	1	1
439	3	-0.661951  	390.272  	527.09  	-1	1	1
440	3	-30.9018  	391.073  	522.437  	-1	1	1
441	3	-59.4709  	399.957  	528.409  	-1	1	1
442	3	-88.9742  	408.412  	524.402  	-1	1	1
443	3	-112.346  	422.861  	511.712  	-1	1	1
444	3	-131.474  	439.964  	494.211  	-1	1	1
445	3	-143.459  	446.228  	466.472  	-1	1	1
446	3	-150.083  	447.948  	436.473  	-1	1	1
447	3	-147.974  	451.176  	405.86  	-1	1	1
448	3	-151.147  	453.72  	376.044  	-1	1	1
449	3	-143.419  	439.938  	350.611  	-1	1	1
450	3	-135.334  	427.436  	324.035  	-1	1	1
451	3	-121.66  	422.534  	296.855  	-1	1	1
452	3	-106.546  	417.608  	271.05  	-1	1	1
453	3	-82.4096  	413.709  	254.01  	-1	1	1
454	3	-54.9098  	401.134  	247.238  	-1	1	1
455	3	-25.4913  	390.946  	245.834  	-1	1	1
456	3	2.97945  	381.511  	251.655  	-1	1	1
457	3	32.9125  	381.653  	259.484  	-1	1	1
458	3	62.0765  	388.005  	267.009  	-1	1	1
459	3	83.9807  	384.97  	287.987  	-1	1	1
460	3	108.359  	366.089  	293.301  	-1	1	1
461	3	124.196  	343.361  	280.313  	-1	1	1
462	3	145.706  	326.261  	267.989  	-1	1	1
463	3	166.331  	315.255  	250.067  	-1	1	1
464	3	186.567  	300.991  	232.758  	-1	1	1
465	3	202.762  	277.722  	223.461  	-1	1	1
466	3	208.036  	256.127  	202.825  	-1	1	1
467	3	206.819  	231.298  	184.185  	-1	1	1
468	3	193.357  	212.699  	163.915  	-1	1	1
469	3	169.339  	201.141  	148.274  	-1	1	1
470	3	141.243  	186.32  	144.684  	-1	1	1
471	3	121.445  	162.229  	149.61  	-1	1	1
472	3	110.759  	135.593  	159.761  	-1	1	1
473	3	108.931  	106.593  	169.636  	-1	1	1
474	3	113.595  	77.133  	173.623  	-1	1	1
475	3	130.582  	52.5439  	182.267  	-1	1	1
476	3	146.42  	37.1131  	203.874  	-1	1	1
477	3	171.75  	39.603  	219.527  	-1	1	1
478	3	199.488  	39.9511  	233.737  	-1	1	1
479	3	218.804  	60.1367  	247.867  	-1	1	1
480	3	239.566  	82.0138  	252.306  	-1	1	1
481	3	247.545  	109.504  	261.679  	-1	1	1
482	3	260.804  	132.68  	276.005  	-1	1	1
483	3	269.246  	159.06  	289.04  	-1	1	1
484	3	270.713  	186.649  	302.066  	-1	1	1
485	3	273.489  	218.241  	304.438  	-1	1	1
486	3	277.794  	242.308  	287.226  	-1	1	1
487	3	273.871  	262.879  	265.569  	-1	1	1
488	3	274.322  	278.175  	237.198  	-1	1	1
489	3	269.535  	288.223  	208.872  	-1	1	1
490	3	267.439  	297.161  	180.472  	-1	1	1
491	3	258.167  	304.748  	152.67  	-1	1	1
492	3	244.257  	310.57  	125.059  	-1	1	1
493	3	231.998  	321.177  	100.153  	-1	1	1
494	3	215.046  	333.346  	78.646  	-1	1	1
495	3	209.608  	350.055  	53.048  	-1	1	1
496	3	211.391  	357.796  	23.0977  	-1	1	1
497	3	228.96  	372.69  	4.47441  	-1	1	1
498	3	249.926  	391.389  	-6.84433  	-1	1	1
499	3	280.988  	389.919  	-1.63293  	-1	1	1
500	3	310.45  	389.873  	5.40882  	-1	1	1
501	3	340.345  	388.073  	11.9923  	-1	1	1
502	3	368.331  	377.174  	20.5223  	-1	1	1
503	3	393.222  	362.173  	29.5567  	-1	1	1
504	3	407.812  	341.357  	46.4152  	-1	1	1
505	3	398.649  	321.522  	69.605  	-1	1	1
506	3	383.199  	310.334  	94.227  	-1	1	1
507	3	361.655  	299.775  	113.272  	-1	1	1
508	3	332.268  	295.577  	123.204  	-1	1	1
509	3	306.648  	279.457  	129.84  	-1	1	1
510	3	285.327  	257.9  	136.31  	-1	1	1
511	3	265.641  	235.276  	131.917  	-1	1	1
512	3	266.658  	205.263  	125.345  	-1	1	1
513	3	273.236  	176.149  	120.289  	-1	1	1
514	3	297.016  	156.381  	126.174  	-1	1	1
515	3	313.514  	135.695  	141.368  	-1	1	1
516	3	327.796  	120.66  	164.039  	-1	1	1
517	3	345.639  	105.176  	184.855  	-1	1	1
518	3	365.36  	92.5741  	202.907  	-1	1	1
519	3	391.104  	79.7028  	214.506  	-1	1	1
520	3	411.488  	62.4275  	202.522  	-1	1	1
521	3	425.15  	35.4563  	200.142  	-1	1	1
522	3	435.153  	6.23524  	201.995  	-1	1	1
523	3	418.785  	-19.2032  	206.729  	-1	1	1
524	3	395.95  	-35.0834  	217.482  	-1	1	1
525	3	372.512  	-49.3479  	230.464  	-1	1	1
526	3	348.64  	-66.1336  	240.672  	-1	1	1
527	3	319.072  	-76.4161  	233.651  	-1	1	1
528	3	298.258  	-86.9842  	214.994  	-1	1	1
529	3	276.168  	-87.9768  	192.498  	-1	1	1
530	3	273.145  	-87.7589  	160.551  	-1	1	1
531	3	273.199  	-90.1736  	129.986  	-1	1	1
532	3	277.911  	-85.1182  	101.098  	-1	1	1
533	3	282.63  	-81.7857  	71.386  	-1	1	1
534	3	286.36  	-64.2033  	45.3809  	-1	1	1
535	3	290.318  	-63.0476  	15.776  	-1	1	1
536	3	309.218  	-60.2709  	-8.88297  	-1	1	1
537	3	333.38  	-65.7668  	-27.1973  	-1	1	1
538	3	343.681  	-67.2384  	-56.2977  	-1	1	1
539	3	341.879  	-70.2134  	-86.835  	-1	1	1
540	3	334.655  	-73.563  	-115.11  	-1	1	1
541	3	332.571  	-90.7895  	-139.882  	-1	1	1
542	3	323.175  	-108.113  	-162.608  	-1	1	1
543	3	312.852  	-134.854  	-171.972  	-1	1	1
544	3	303.61  	-157.21  	-191.005  	-1	1	1
545	3	295.615  	-162.398  	-219.369  	-1	1	1
546	3	289.552  	-153.255  	-247.934  	-1	1	1
547	3	277.129  	-133.043  	-268.186  	-1	1	1
548	3	274.651  	-104.13  	-280.125  	-1	1	1
549	3	278.892  	-74.2636  	-285.797  	-1	1	1
550	3	281.506  	-44.1523  	-288.439  	-1	1	1
551	3	278.387  	-13.5701  	-283.303  	-1	1	1
552	3	285.487  	15.5102  	-274.541  	-1	1	1
553	3	289.357  	42.3649  	-260.294  	-1	1	1
554	3	293.721  	63.3552  	-237.339  	-1	1	1
555	3	296.494  	79.1065  	-210.488  	-1	1	1
556	3	305.263  	91.0471  	-184.01  	-1	1	1
557	3	313.423  	98.7056  	-156.13  	-1	1	1
558	3	320.385  	107.241  	-128.542  	-1	1	1
559	3	334.947  	114.68  	-103.158  	-1	1	1
560	3	355.441  	112.269  	-80.2248  	-1	1	1
561	3	371.672  	130.664  	-62.4448  	-1	1	1
562	3	386.286  	158.838  	-61.3574  	-1	1	1
563	3	408.602  	180.551  	-63.7328  	-1	1	1
564	3	432.356  	199.107  	-58.0276  	-1	1	1
565	3	462.718  	203.678  	-58.3962  	-1	1	1
566	3	483.087  	224.267  	-70.5736  	-1	1	1
567	3	509.932  	226.833  	-84.4414  	-1	1	1
568	3	538.239  	232.667  	-96.7562  	-1	1	1
569	3	557.246  	244.182  	-117.244  	-1	1	1
570	3	569.32  	258.873  	-141.313  	-1	1	1
571	3	564.138  	272.999  	-168.24  	-1	1	1
572	3	559.254  	291.318  	-192.083  	-1	1	1
573	3	536.99  	308.896  	-205.311  	-1	1	1
574	3	515.459  	318.142  	-224.63  	-1	1	1
575	3	488.502  	315.089  	-240.42  	-1	1	1
576	3	463.93  	306.086  	-258.444  	-1	1	1
577	3	444.692  	297.1  	-280.553  	-1	1	1
578	3	428.321  	276.811  	-294.647  	-1	1	1
579	3	405.812  	255.457  	-299.574  	-1	1	1
580	3	385.552  	233.469  	-304.692  	-1	1	1
581	3	377.407  	204.665  	-299.539  	-1	1	1
582	3	366.129  	174.929  	-299.266  	-1	1	1
583	3	349.754  	150.833  	-300.811  	-1	1	1
584	3	326.607  	131.982  	-294.083  	-1	1	1
585	3	309.354  	105.767  	-290.511  	-1	1	1
586	3	303.996  	74.9659  	-293.479  	-1	1	1
587	3	291.015  	48.7745  	-301.873  	-1	1	1
588	3	278.879  	21.9901  	-313.443  	-1	1	1
589	3	280.347  	-3.05859  	-331.805  	-1	1	1
590	3	281.554  	-20.5261  	-357.035  	-1	1	1
591	3	279.586  	-31.1988  	-385.851  	-1	1	1
592	3	297.098  	-14.2522  	-405.486  	-1	1	1
593	3	306.736  	8.85319  	-422.299  	-1	1	1
594	3	325.768  	26.649  	-437.075  	-1	1	1
595	3	341.28  	35.8237  	-463.656  	-1	1	1
596	3	352.254  	59.053  	-481.308  	-1	1	1
597	3	371.507  	83.7854  	-488.079  	-1	1	1
598	3	377.596  	111.561  	-497.72  	-1	1	1
599	3	382.69  	140.481  	-504.566  	-1	1	1
600	3	381.546  	171.954  	-509.376  	-1	1	1
601	3	387.96  	199.706  	-516.439  	-1	1	1
602	3	383.153  	226.954  	-530.153  	-1	1	1
603	3	386.487  	245.173  	-554.942  	-1	1	1
604	3	397.767  	263.507  	-577.245  	-1	1	1
605	3	409.975  	284.918  	-595.013  	-1	1	1
606	3	434.961  	295.52  	-607.741  	-1	1	1
607	3	454.81  	319.351  	-610.786  	-1	1	1
608	3	481.83  	332.395  	-619.07  	-1	1	1
609	3	511.817  	329.694  	-625.759  	-1	1	1
610	3	537.434  	321.117  	-612.231  	-1	1	1
611	3	564.176  	310.51  	-601.483  	-1	1	1
612	3	592.65  	303.246  	-592.101  	-1	1	1
613	3	608.729  	284.296  	-573.449  	-1	1	1
614	3	619.554  	267.184  	-549.907  	-1	1	1
615	3	612.868  	240.764  	-535.327  	-1	1	1
616	3	602.424  	210.961  	-534.588  	-1	1	1
617	3	596.966  	185.867  	-518.461  	-1	1	1
618	3	594.896  	163.195  	-497.921  	-1	1	1
619	3	584.473  	148.221  	-474.468  	-1	1	1
620	3	569.702  	140.267  	-447.889  	-1	1	1
621	3	562.149  	141.928  	-420.095  	-1	1	1
622	3	545.569  	143.226  	-394.046  	-1	1	1
623	3	538.796  	128.078  	-367.698  	-1	1	1
624	3	537.49  	98.9792  	-355.266  	-1	1	1
625	3	543.967  	69.3417  	-355.864  	-1	1	1
626	3	564.18  	46.4313  	-352.209  	-1	1	1
627	3	583.69  	25.1871  	-363.714  	-1	1	1
628	3	595.985  	6.53337  	-384.561  	-1	1	1
629	3	601.296  	-9.41869  	-410.501  	-1	1	1
630	3	620.979  	-19.7558  	-430.531  	-1	1	1
631	3	640.308  	-40.9446  	-441.977  	-1	1	1
632	3	665.835  	-53.5045  	-453.495  	-1	1	1
633	3	693.489  	-58.9724  	-462.743  	-1	1	1
634	3	723.377  	-53.8662  	-468.948  	-1	1	1
635	3	739.57  	-48.5638  	-444.957  	-1	1	1
636	3	740.272  	-46.9439  	-414.888  	-1	1	1
637	3	751.189  	-43.3885  	-386.081  	-1	1	1
638	3	762.486  	-41.4513  	-357.543  	-1	1	1
639	3	773.386  	-41.4581  	-328.361  	-1	1	1
640	3	780.42  	-24.8481  	-302.201  	-1	1	1
641	3	777.34  	2.2412  	-286.47  	-1	1	1
642	3	777.87  	31.2632  	-280.731  	-1	1	1
643	3	782.964  	59.5793  	-271.259  	-1	1	1
644	3	797.588  	82.2754  	-257.943  	-1	1	1
645	3	817.116  	104.19  	-250.237  	-1	1	1
646	3	825.394  	128.267  	-235.916  	-1	1	1
647	3	810.906  	154.199  	-226.78  	-1	1	1
648	3	791.435  	177.339  	-228.636  	-1	1	1
649	3	763.086  	186.788  	-236.869  	-1	1	1
650	3	734.56  	180.986  	-242.974  	-1	1	1
651	3	707.353  	184.381  	-255.595  	-1	1	1
652	3	682.448  	188.566  	-270.357  	-1	1	1
653	3	652.504  	197.655  	-269.59  	-1	1	1
654	3	628.578  	212.285  	-281.468  	-1	1	1
655	3	601.64  	218.88  	-297.777  	-1	1	1
656	3	574.082  	228.552  	-308.653  	-1	1	1
657	3	550.557  	249.459  	-311.635  	-1	1	1
658	3	544.841  	279.318  	-312.288  	-1	1	1
659	3	530.711  	303.645  	-300.165  	-1	1	1
660	3	527.053  	329.178  	-282.539  	-1	1	1
661	3	519.916  	352.453  	-264.367  	-1	1	1
662	3	527.091  	361.531  	-236.489  	-1	1	1
663	3	528.957  	371.562  	-207.553  	-1	1	1
664	3	542.551  	366.311  	-181.424  	-1	1	1
665	3	558.119  	352.243  	-159.316  	-1	1	1
666	3	579.005  	332.34  	-147.819  	-1	1	1
667	3	603.902  	317.349  	-138.263  	-1	1	1
668	3	623.91  	294.535  	-137.124  	-1	1	1
669	3	637.481  	266.984  	-134.203  	-1	1	1
670	3	660.869  	248.295  	-144.001  	-1	1	1
671	3	679.858  	243.713  	-167.043  	-1	1	1
672	3	695.502  	257.964  	-188.964  	-1	1	1
673	3	712.702  	279.295  	-201.75  	-1	1	1
674	3	725.124  	307.053  	-210.091  	-1	1	1
675	3	735.163  	336.315  	-208.124  	-1	1	1
676	3	737.977  	364.655  	-196.296  	-1	1	1
677	3	724.947  	390.58  	-186.593  	-1	1	1
678	3	719.769  	416.226  	-170.096  	-1	1	1
679	3	703.645  	427.267  	-146.345  	-1	1	1
680	3	685.741  	422.582  	-121.82  	-1	1	1
681	3	682.052  	414.126  	-92.683  	-1	1	1
682	3	696.604  	397.35  	-71.7999  	-1	1	1
683	3	716.125  	377.936  	-59.003  	-1	1	1
684	3	726.472  	351.404  	-49.9015  	-1	1	1
685	3	734.219  	322.028  	-44.5297  	-1	1	1