# LAMMPS data file for replicating chromosomes formed of rigid body monomers

8112		atoms
8		atom types
5550		ellipsoids
5501		bonds
2		bond types
11002		angles
4		angle types


-1140	1140	xlo xhi
-1140	1140	ylo yhi
-1140	1140	zlo zhi

Atoms # atom-ID atom-type x y z molecule-ID ellipsoid-flag density

1	5	586.126  	497.631  	215.697  	-1	1	1
2	3	561.145  	507.574  	227.823  	-1	1	1
3	3	531.203  	515.759  	233.401  	-1	1	1
4	3	507.05  	521.816  	215.919  	-1	1	1
5	3	504.585  	506.277  	189.304  	-1	1	1
6	3	509.501  	489.582  	164.352  	-1	1	1
7	3	520.142  	484.074  	136.66  	-1	1	1
8	3	533.875  	493.018  	111.224  	-1	1	1
9	3	543.592  	504.62  	84.1233  	-1	1	1
10	3	558.257  	516.073  	60.4894  	-1	1	1
11	3	569.736  	506.735  	33.3521  	-1	1	1
12	3	571.994  	483.736  	14.5047  	-1	1	1
13	3	566.12  	454.599  	11.0604  	-1	1	1
14	3	567.603  	424.617  	11.4886  	-1	1	1
15	3	566.908  	397.193  	23.2795  	-1	1	1
16	3	576.424  	369.521  	29.9195  	-1	1	1
17	3	587.743  	342.937  	31.7626  	-1	1	1
18	3	611.456  	338.58  	14.1649  	-1	1	1
19	3	636.088  	351.366  	1.05296  	-1	1	1
20	3	658.374  	364.566  	-14.9619  	-1	1	1
21	3	684.752  	367.395  	-30.5914  	-1	1	1
22	3	715.335  	370.043  	-29.5288  	-1	1	1
23	3	744.262  	366.466  	-17.4495  	-1	1	1
24	3	753.518  	342.349  	-1.54038  	-1	1	1
25	3	760.13  	324.62  	21.6793  	-1	1	1
26	3	757.92  	300.469  	42.8271  	-1	1	1
27	3	747.559  	282.531  	67.6131  	-1	1	1
28	3	735.357  	263.522  	48.0061  	-1	1	1
29	3	727.785  	242.785  	25.4639  	-1	1	1
30	3	711.937  	228.793  	3.20424  	-1	1	1
31	3	688.074  	209.163  	7.60609  	-1	1	1
32	3	678.567  	200.682  	34.3394  	-1	1	1
33	3	693.597  	194.264  	59.8701  	-1	1	1
34	3	720.861  	203.411  	69.4659  	-1	1	1
35	3	745.053  	189.916  	56.7576  	-1	1	1
36	3	764.473  	167.786  	46.9703  	-1	1	1
37	3	786.345  	147.169  	50.8793  	-1	1	1
38	3	786.653  	129.264  	76.215  	-1	1	1
39	3	803.701  	117.698  	55.5039  	-1	1	1
40	3	818.664  	96.6429  	37.9851  	-1	1	1
41	3	831.27  	72.5868  	21.8297  	-1	1	1
42	3	836.996  	65.3965  	-7.35415  	-1	1	1
43	3	824.301  	76.9486  	-34.9821  	-1	1	1
44	3	813.095  	71.8662  	-63.2099  	-1	1	1
45	3	804.964  	42.8968  	-68.1626  	-1	1	1
46	3	806.328  	15.8834  	-55.8327  	-1	1	1
47	3	813.331  	7.25116  	-26.413  	-1	1	1
48	3	824.846  	1.27702  	1.95297  	-1	1	1
49	3	834.103  	-5.27219  	30.0022  	-1	1	1
50	3	835.168  	-7.96063  	60.2876  	-1	1	1
51	3	822.643  	-10.343  	87.7694  	-1	1	1
52	3	805.933  	-0.91483  	112.753  	-1	1	1
53	3	777.605  	5.89441  	120.069  	-1	1	1
54	3	749.778  	13.0799  	108.381  	-1	1	1
55	3	731.536  	8.1478  	85.2367  	-1	1	1
56	3	726.493  	-4.0985  	57.0931  	-1	1	1
57	3	725.598  	-2.87027  	27.3416  	-1	1	1
58	3	741.506  	0.933621  	0.613046  	-1	1	1
59	3	762.52  	16.9207  	-13.2285  	-1	1	1
60	3	779.462  	43.0959  	-11.7827  	-1	1	1
61	3	795.428  	47.6771  	13.6555  	-1	1	1
62	3	806.249  	43.7757  	41.7839  	-1	1	1
63	3	792.83  	48.3266  	68.6435  	-1	1	1
64	3	769.909  	56.0235  	87.6323  	-1	1	1
65	3	739.246  	52.6503  	93.5859  	-1	1	1
66	3	709.947  	51.4563  	105.53  	-1	1	1
67	3	681.012  	45.1099  	111.655  	-1	1	1
68	3	651.516  	47.0699  	122.032  	-1	1	1
69	3	625.467  	55.8732  	135.196  	-1	1	1
70	3	600.431  	65.3408  	150.59  	-1	1	1
71	3	599.741  	90.6361  	168.366  	-1	1	1
72	3	613.199  	115.519  	156.878  	-1	1	1
73	3	633.055  	129.714  	139.578  	-1	1	1
74	3	659.52  	142.2  	132.09  	-1	1	1
75	3	672.06  	131.228  	158.321  	-1	1	1
76	3	666.523  	125.586  	187.913  	-1	1	1
77	3	680.069  	140.713  	210.25  	-1	1	1
78	3	702.305  	151.322  	227.422  	-1	1	1
79	3	724.809  	163.702  	243.507  	-1	1	1
80	3	743.858  	167.349  	265.841  	-1	1	1
81	3	747.315  	161.801  	295.705  	-1	1	1
82	3	736.769  	151.862  	322.748  	-1	1	1
83	3	734.164  	140.239  	351.192  	-1	1	1
84	3	726.064  	114.911  	365.643  	-1	1	1
85	3	713.846  	87.7191  	372.629  	-1	1	1
86	3	711.752  	57.4983  	372.271  	-1	1	1
87	3	697.125  	30.6793  	367.389  	-1	1	1
88	3	680.243  	7.49943  	377.194  	-1	1	1
89	3	697.162  	5.89812  	402.595  	-1	1	1
90	3	723.954  	20.0841  	400.907  	-1	1	1
91	3	746.917  	23.5512  	380.92  	-1	1	1
92	3	749.496  	19.0957  	349.862  	-1	1	1
93	3	753.219  	12.1406  	321.286  	-1	1	1
94	3	746.993  	-17.6492  	324.473  	-1	1	1
95	3	731.534  	-42.5629  	332.135  	-1	1	1
96	3	715.402  	-66.988  	339.802  	-1	1	1
97	3	694.518  	-88.9372  	346.691  	-1	1	1
98	3	678.385  	-114.126  	340.676  	-1	1	1
99	3	662.922  	-139.773  	348.132  	-1	1	1
100	3	636.34  	-149.79  	336.007  	-1	1	1
101	3	625.891  	-154.206  	306.409  	-1	1	1
102	3	635.29  	-155.829  	276.859  	-1	1	1
103	3	652.958  	-177.181  	262.829  	-1	1	1
104	3	675.758  	-197.277  	270.378  	-1	1	1
105	3	663.402  	-200.562  	298.441  	-1	1	1
106	3	647.455  	-195.026  	322.651  	-1	1	1
107	3	623.142  	-184.134  	335.479  	-1	1	1
108	3	595.925  	-170.092  	335.773  	-1	1	1
109	3	575.621  	-161.09  	313.203  	-1	1	1
110	3	549.775  	-166.799  	296.9  	-1	1	1
111	3	522.187  	-183.123  	294.172  	-1	1	1
112	3	510.6  	-210.54  	300.766  	-1	1	1
113	3	524.911  	-232.279  	318.663  	-1	1	1
114	3	551.81  	-239.887  	330.019  	-1	1	1
115	3	568.343  	-219.67  	345.073  	-1	1	1
116	3	592.536  	-206.883  	359.857  	-1	1	1
117	3	618.339  	-199.183  	372.743  	-1	1	1
118	3	639.24  	-205.102  	394.688  	-1	1	1
119	3	648.033  	-233.016  	401.591  	-1	1	1
120	3	625.51  	-252.033  	401.641  	-1	1	1
121	3	600.341  	-269.544  	397.442  	-1	1	1
122	3	578.503  	-277.015  	378.529  	-1	1	1
123	3	549.265  	-276.032  	369.709  	-1	1	1
124	3	518.229  	-276.479  	368.552  	-1	1	1
125	3	489.869  	-285.98  	364.669  	-1	1	1
126	3	461.224  	-294.394  	371.871  	-1	1	1
127	3	451.544  	-307.417  	345.764  	-1	1	1
128	3	435.397  	-296.562  	320.038  	-1	1	1
129	3	419.438  	-274.7  	304.661  	-1	1	1
130	3	419.625  	-246.413  	296.158  	-1	1	1
131	3	422.835  	-221.17  	314.583  	-1	1	1
132	3	416.078  	-201.499  	335.201  	-1	1	1
133	3	396.47  	-184.364  	352.052  	-1	1	1
134	3	368.606  	-173.926  	359.69  	-1	1	1
135	3	341.178  	-168.416  	371.562  	-1	1	1
136	3	315.887  	-155.842  	382.478  	-1	1	1
137	3	291.398  	-149.231  	399.461  	-1	1	1
138	3	269.801  	-130.766  	410.256  	-1	1	1
139	3	276.781  	-101.713  	405.698  	-1	1	1
140	3	273.888  	-82.8846  	381.964  	-1	1	1
141	3	274.658  	-63.3629  	356.401  	-1	1	1
142	3	274.128  	-87.1882  	335.976  	-1	1	1
143	3	262.438  	-112.712  	325.25  	-1	1	1
144	3	254.933  	-141.734  	330.175  	-1	1	1
145	3	239.21  	-165.021  	317.97  	-1	1	1
146	3	216.948  	-179.048  	302.172  	-1	1	1
147	3	244.713  	-184.122  	287.346  	-1	1	1
148	3	271.606  	-192.146  	270.782  	-1	1	1
149	3	298.532  	-207.103  	268.043  	-1	1	1
150	3	324.551  	-210.282  	250.649  	-1	1	1
151	3	347.251  	-228.776  	242.679  	-1	1	1
152	3	343.672  	-237.948  	272.442  	-1	1	1
153	3	340.303  	-215.117  	293.156  	-1	1	1
154	3	325.252  	-187.493  	296.143  	-1	1	1
155	3	305.262  	-165.158  	303.404  	-1	1	1
156	3	311.26  	-136.383  	311.357  	-1	1	1
157	3	316.92  	-108.748  	319.608  	-1	1	1
158	3	323.003  	-83.2291  	336.611  	-1	1	1
159	3	324.336  	-61.9934  	358.303  	-1	1	1
160	3	327.036  	-46.2763  	385.939  	-1	1	1
161	3	323.996  	-60.835  	412.575  	-1	1	1
162	3	327.227  	-82.7937  	433.094  	-1	1	1
163	3	333.246  	-109.944  	451.625  	-1	1	1
164	3	329.724  	-133.637  	472.106  	-1	1	1
165	3	312.053  	-147.542  	492.002  	-1	1	1
166	3	288.994  	-155.13  	471.315  	-1	1	1
167	3	266.403  	-163.747  	452.419  	-1	1	1
168	3	239.639  	-175.547  	443.901  	-1	1	1
169	3	213.404  	-187.942  	437.595  	-1	1	1
170	3	222.594  	-203.583  	411.608  	-1	1	1
171	3	228.699  	-227.759  	391.822  	-1	1	1
172	3	207.216  	-237.106  	409.929  	-1	1	1
173	3	182.037  	-251.294  	422.867  	-1	1	1
174	3	162.721  	-253.118  	446.647  	-1	1	1
175	3	170.131  	-249.88  	476.072  	-1	1	1
176	3	197.614  	-257.573  	483.724  	-1	1	1
177	3	210.769  	-285.46  	486.666  	-1	1	1
178	3	202.63  	-312.741  	496.669  	-1	1	1
179	3	180.993  	-324.948  	515.682  	-1	1	1
180	3	163.494  	-300.794  	506.731  	-1	1	1
181	3	149.54  	-284.606  	484.665  	-1	1	1
182	3	134.699  	-264.416  	467.789  	-1	1	1
183	3	119.066  	-239.305  	460.669  	-1	1	1
184	3	131.627  	-213.924  	473.344  	-1	1	1
185	3	138.454  	-196.341  	496.958  	-1	1	1
186	3	138.711  	-199.103  	526.735  	-1	1	1
187	3	137.784  	-208.37  	557.409  	-1	1	1
188	3	136.888  	-208.178  	587.703  	-1	1	1
189	3	134.446  	-221.891  	616.786  	-1	1	1
190	3	122.432  	-230.207  	645.109  	-1	1	1
191	3	108.347  	-242.551  	669.341  	-1	1	1
192	3	89.3236  	-259.982  	684.884  	-1	1	1
193	3	76.2513  	-282.917  	699.596  	-1	1	1
194	3	52.6777  	-293.487  	683.322  	-1	1	1
195	3	37.723  	-279.541  	660.045  	-1	1	1
196	3	23.891  	-257.756  	643.029  	-1	1	1
197	3	16.1384  	-231.601  	628.616  	-1	1	1
198	3	20.0996  	-201.919  	632.14  	-1	1	1
199	3	31.7667  	-184.369  	654.885  	-1	1	1
200	3	45.9036  	-193.557  	680.311  	-1	1	1
201	3	60.4365  	-218.366  	692.285  	-1	1	1
202	3	71.6429  	-233.041  	717.425  	-1	1	1
203	3	50.7151  	-239.429  	737.877  	-1	1	1
204	3	30.4076  	-225.25  	754.938  	-1	1	1
205	3	12.321  	-199.949  	753.316  	-1	1	1
206	3	1.79704  	-197.98  	725.067  	-1	1	1
207	3	6.85728  	-221.696  	706.006  	-1	1	1
208	3	6.42538  	-248.962  	692.097  	-1	1	1
209	3	5.721  	-274.633  	675.945  	-1	1	1
210	3	10.4516  	-304.237  	668.797  	-1	1	1
211	3	25.976  	-326.239  	684.792  	-1	1	1
212	3	53.2423  	-342.729  	686.397  	-1	1	1
213	3	82.0119  	-350.45  	682.667  	-1	1	1
214	3	112.609  	-350.341  	675.932  	-1	1	1
215	3	113.97  	-333.613  	650.228  	-1	1	1
216	3	101.66  	-319.176  	626.795  	-1	1	1
217	3	73.5375  	-327.567  	633.403  	-1	1	1
218	3	59.2096  	-350.522  	649.588  	-1	1	1
219	3	52.8185  	-376.661  	665.018  	-1	1	1
220	3	49.1953  	-403.367  	680.249  	-1	1	1
221	3	56.8282  	-432.856  	677.102  	-1	1	1
222	3	54.7555  	-450.677  	653.539  	-1	1	1
223	3	63.2767  	-451.736  	623.941  	-1	1	1
224	3	60.4101  	-442.581  	594.947  	-1	1	1
225	3	58.2149  	-440.512  	563.368  	-1	1	1
226	3	65.1689  	-431.196  	535.81  	-1	1	1
227	3	82.9266  	-414.409  	554.474  	-1	1	1
228	3	108.917  	-405.615  	568.78  	-1	1	1
229	3	127.788  	-391.051  	549.767  	-1	1	1
230	3	108.186  	-386.018  	527.718  	-1	1	1
231	3	78.5173  	-389.941  	522.467  	-1	1	1
232	3	76.5251  	-358.475  	516.709  	-1	1	1
233	3	70.5319  	-330.184  	525.67  	-1	1	1
234	3	76.0418  	-318.919  	552.685  	-1	1	1
235	3	85.6011  	-335.459  	576.19  	-1	1	1
236	3	107.085  	-349.176  	593.205  	-1	1	1
237	3	119.021  	-370.97  	611.656  	-1	1	1
238	3	126.52  	-382.34  	638.163  	-1	1	1
239	3	123.093  	-386.761  	668.658  	-1	1	1
240	3	114.466  	-392.123  	699.132  	-1	1	1
241	3	114.582  	-400.914  	729.023  	-1	1	1
242	3	130.685  	-427.052  	728.351  	-1	1	1
243	3	156.488  	-426.748  	712.889  	-1	1	1
244	3	167.607  	-406.621  	692.105  	-1	1	1
245	3	161.552  	-376.443  	692.488  	-1	1	1
246	3	160.878  	-348.682  	707.116  	-1	1	1
247	3	160.264  	-325.434  	727.011  	-1	1	1
248	3	175.576  	-298.702  	730.892  	-1	1	1
249	3	198.919  	-279.72  	725.716  	-1	1	1
250	3	226.762  	-272.013  	714.29  	-1	1	1
251	3	252.038  	-286.373  	704.862  	-1	1	1
252	3	271.311  	-307.337  	693.795  	-1	1	1
253	3	287.597  	-327.639  	675.988  	-1	1	1
254	3	303.998  	-349.894  	664.847  	-1	1	1
255	3	335.415  	-348.401  	661.413  	-1	1	1
256	3	357.876  	-328.994  	665.722  	-1	1	1
257	3	367.367  	-309.216  	686.555  	-1	1	1
258	3	373.815  	-293.105  	713.533  	-1	1	1
259	3	365.192  	-273.855  	735.054  	-1	1	1
260	3	338.994  	-259.339  	742.213  	-1	1	1
261	3	314.655  	-241.489  	753.117  	-1	1	1
262	3	300.455  	-254.326  	727.439  	-1	1	1
263	3	284.765  	-261.682  	701.592  	-1	1	1
264	3	263.859  	-251.596  	681.038  	-1	1	1
265	3	282.6  	-274.414  	671.894  	-1	1	1
266	3	290.498  	-295.414  	651.088  	-1	1	1
267	3	301.115  	-321.007  	637.062  	-1	1	1
268	3	315.694  	-343.749  	623.555  	-1	1	1
269	3	334.994  	-363.268  	609.892  	-1	1	1
270	3	357.361  	-374.343  	592.372  	-1	1	1
271	3	382.736  	-369.221  	575.024  	-1	1	1
272	3	377.978  	-346.608  	555.322  	-1	1	1
273	3	363.068  	-319.637  	554.795  	-1	1	1
274	3	346.39  	-298.793  	570.132  	-1	1	1
275	3	322.186  	-290.059  	586.152  	-1	1	1
276	3	312.099  	-267.055  	569.265  	-1	1	1
277	3	312.96  	-245.938  	547.271  	-1	1	1
278	3	305.615  	-220.725  	532.666  	-1	1	1
279	3	315.13  	-193.275  	525.039  	-1	1	1
280	3	318.866  	-163.413  	532.171  	-1	1	1
281	3	314.251  	-155.245  	561.724  	-1	1	1
282	3	307.727  	-174.233  	584.261  	-1	1	1
283	3	309.644  	-200.765  	597.385  	-1	1	1
284	3	310.192  	-225.73  	615.972  	-1	1	1
285	3	294.412  	-229.498  	641.274  	-1	1	1
286	3	287.508  	-221.412  	668.809  	-1	1	1
287	3	281.406  	-203.557  	692.277  	-1	1	1
288	3	277.658  	-177.205  	707.798  	-1	1	1
289	3	280.218  	-146.617  	712.354  	-1	1	1
290	3	292.062  	-122.312  	700.578  	-1	1	1
291	3	305.529  	-108.479  	676.646  	-1	1	1
292	3	327.096  	-129.436  	678.724  	-1	1	1
293	3	354.622  	-142.136  	674.851  	-1	1	1
294	3	364.253  	-168.301  	662.359  	-1	1	1
295	3	341.03  	-172.923  	644.465  	-1	1	1
296	3	323.588  	-166.181  	620.438  	-1	1	1
297	3	329.303  	-142.351  	600.441  	-1	1	1
298	3	352.311  	-121.508  	606.751  	-1	1	1
299	3	347.301  	-97.5907  	624.855  	-1	1	1
300	3	335.123  	-76.6704  	643.41  	-1	1	1
301	3	306.461  	-78.8094  	654.955  	-1	1	1
302	3	280.522  	-80.5595  	670.522  	-1	1	1
303	3	272.34  	-55.3861  	655.814  	-1	1	1
304	3	253.998  	-32.7659  	644.026  	-1	1	1
305	3	273.317  	-43.892  	622.95  	-1	1	1
306	3	289.774  	-65.7963  	609.312  	-1	1	1
307	3	296.988  	-95.2513  	608.226  	-1	1	1
308	3	285.488  	-112.786  	631.524  	-1	1	1
309	3	268.339  	-117.08  	655.983  	-1	1	1
310	3	255.801  	-110.412  	682.106  	-1	1	1
311	3	234.031  	-89.0584  	683.124  	-1	1	1
312	3	215.394  	-91.6397  	658.434  	-1	1	1
313	3	203.373  	-100.855  	632.308  	-1	1	1
314	3	224.652  	-115.078  	617.106  	-1	1	1
315	3	244.869  	-137.004  	621.015  	-1	1	1
316	3	250.615  	-166.472  	625.095  	-1	1	1
317	3	244.212  	-192.332  	638.445  	-1	1	1
318	3	236.745  	-209.636  	661.836  	-1	1	1
319	3	216.019  	-197.237  	681.602  	-1	1	1
320	3	199.693  	-173.024  	689.05  	-1	1	1
321	3	191.06  	-148.831  	704.328  	-1	1	1
322	3	186.796  	-122.441  	720.291  	-1	1	1
323	3	189.742  	-95.4768  	734.243  	-1	1	1
324	3	183.111  	-65.7792  	730.257  	-1	1	1
325	3	168.849  	-43.0705  	713.962  	-1	1	1
326	3	142.881  	-48.7758  	697.902  	-1	1	1
327	3	124.176  	-72.8162  	694.234  	-1	1	1
328	3	109.183  	-96.9164  	682.542  	-1	1	1
329	3	105.554  	-128.339  	684.463  	-1	1	1
330	3	107.854  	-151.176  	704.925  	-1	1	1
331	3	112.42  	-156.083  	734.067  	-1	1	1
332	3	91.679  	-156.95  	755.847  	-1	1	1
333	3	73.6703  	-149.186  	778.806  	-1	1	1
334	3	60.1022  	-130.9  	799.166  	-1	1	1
335	3	39.7189  	-111.992  	812.628  	-1	1	1
336	3	12.6124  	-124.152  	823.545  	-1	1	1
337	3	30.3969  	-148.911  	821.348  	-1	1	1
338	3	56.21  	-163.658  	812.854  	-1	1	1
339	3	84.785  	-156.146  	822.38  	-1	1	1
340	3	94.1334  	-134.12  	842.728  	-1	1	1
341	3	76.8188  	-117.314  	859.995  	-1	1	1
342	3	65.2684  	-94.7581  	879.253  	-1	1	1
343	3	47.6122  	-71.0886  	888.11  	-1	1	1
344	3	34.7019  	-43.8057  	886.919  	-1	1	1
345	3	13.234  	-22.9786  	877.906  	-1	1	1
346	3	-0.419657  	-26.803  	850.44  	-1	1	1
347	3	1.62821  	-30.7961  	820.037  	-1	1	1
348	3	14.3115  	-25.2466  	793.101  	-1	1	1
349	3	23.611  	-10.5535  	768.47  	-1	1	1
350	3	39.7754  	15.3095  	762.581  	-1	1	1
351	3	63.6555  	21.8266  	744.151  	-1	1	1
352	3	75.5834  	-3.27258  	758.883  	-1	1	1
353	3	98.2385  	-18.859  	772.29  	-1	1	1
354	3	129.912  	-17.4605  	772.681  	-1	1	1
355	3	150.296  	-0.939606  	755.724  	-1	1	1
356	3	134.753  	26.4435  	752.594  	-1	1	1
357	3	117.97  	52.2809  	757.524  	-1	1	1
358	3	130.726  	75.6539  	773.644  	-1	1	1
359	3	144.485  	103.104  	777.072  	-1	1	1
360	3	140.817  	130.102  	764.301  	-1	1	1
361	3	164.858  	121.468  	746.411  	-1	1	1
362	3	179.45  	120.488  	720.749  	-1	1	1
363	3	193.395  	118.923  	694.3  	-1	1	1
364	3	219.585  	124.961  	709.588  	-1	1	1
365	3	250.953  	120.101  	713.128  	-1	1	1
366	3	273.391  	114.756  	694.902  	-1	1	1
367	3	259.796  	104.006  	669.751  	-1	1	1
368	3	229.897  	100.815  	662.544  	-1	1	1
369	3	200.221  	98.566  	655.305  	-1	1	1
370	3	192.751  	77.1214  	634.812  	-1	1	1
371	3	212.242  	71.1774  	612.444  	-1	1	1
372	3	236.39  	71.6768  	595.574  	-1	1	1
373	3	214.659  	75.8897  	575.901  	-1	1	1
374	3	213.508  	94.6115  	550.205  	-1	1	1
375	3	213.874  	107.59  	522.267  	-1	1	1
376	3	226.861  	130.763  	507.343  	-1	1	1
377	3	237.521  	158.9  	502.123  	-1	1	1
378	3	248.168  	187.467  	506.275  	-1	1	1
379	3	231.868  	206.44  	524.49  	-1	1	1
380	3	204.21  	202.738  	537.462  	-1	1	1
381	3	177.144  	188.949  	542.061  	-1	1	1
382	3	152.537  	172.996  	532.377  	-1	1	1
383	3	139.999  	151.543  	515.524  	-1	1	1
384	3	120.158  	128.556  	515.988  	-1	1	1
385	3	100.655  	104.029  	512.188  	-1	1	1
386	3	74.3461  	99.4375  	525.952  	-1	1	1
387	3	45.9834  	96.5108  	535.306  	-1	1	1
388	3	22.2445  	94.3067  	514.552  	-1	1	1
389	3	5.17578  	93.6083  	488.348  	-1	1	1
390	3	-9.25757  	99.1292  	462.975  	-1	1	1
391	3	6.7182  	121.812  	449.452  	-1	1	1
392	3	11.8456  	146.882  	432.51  	-1	1	1
393	3	2.20513  	170.958  	413.53  	-1	1	1
394	3	9.18331  	187.653  	438.645  	-1	1	1
395	3	19.7459  	190.667  	467.052  	-1	1	1
396	3	31.1414  	189.692  	496.085  	-1	1	1
397	3	51.3661  	184.601  	519.221  	-1	1	1
398	3	71.9246  	177.794  	540.657  	-1	1	1
399	3	90.9195  	165.181  	561.242  	-1	1	1
400	3	112.392  	168.62  	539.189  	-1	1	1
401	3	112.857  	182.317  	512.94  	-1	1	1
402	3	104.807  	206.237  	494.949  	-1	1	1
403	3	97.8982  	232.504  	483.123  	-1	1	1
404	3	90.0843  	257.962  	469.014  	-1	1	1
405	3	91.8959  	283.942  	454.643  	-1	1	1
406	3	87.6679  	314.105  	454.83  	-1	1	1
407	3	71.2258  	337.25  	445.339  	-1	1	1
408	3	71.3958  	363.966  	431.509  	-1	1	1
409	3	83.5764  	366.459  	403.971  	-1	1	1
410	3	104.08  	344.799  	400.081  	-1	1	1
411	3	130.212  	333.245  	411.631  	-1	1	1
412	3	142.265  	345.554  	386.353  	-1	1	1
413	3	143.753  	343.812  	356.75  	-1	1	1
414	3	153.817  	332.179  	329.888  	-1	1	1
415	3	148.204  	309.506  	310.657  	-1	1	1
416	3	138.764  	280.598  	304.179  	-1	1	1
417	3	123.991  	262.651  	284.896  	-1	1	1
418	3	122.46  	292.589  	276.951  	-1	1	1
419	3	141.32  	312.935  	266.598  	-1	1	1
420	3	157.71  	334.322  	255.33  	-1	1	1
421	3	173.159  	356.373  	270.461  	-1	1	1
422	3	163.596  	369.898  	296.765  	-1	1	1
423	3	161.001  	378.654  	326.421  	-1	1	1
424	3	163.465  	377.577  	355.957  	-1	1	1
425	3	170.406  	388.693  	383.123  	-1	1	1
426	3	185.842  	394.83  	407.991  	-1	1	1
427	3	208.795  	380.824  	394.128  	-1	1	1
428	3	206.624  	352.888  	380.265  	-1	1	1
429	3	198.624  	324.001  	383.527  	-1	1	1
430	3	187.021  	310.515  	407.277  	-1	1	1
431	3	166.752  	316.44  	429.982  	-1	1	1
432	3	149.1  	331.649  	449.64  	-1	1	1
433	3	128.784  	354.716  	443.535  	-1	1	1
434	3	118.372  	377.059  	425.48  	-1	1	1
435	3	117.92  	402.794  	410.117  	-1	1	1
436	3	124.954  	424.304  	387.309  	-1	1	1
437	3	134.163  	444.491  	365.947  	-1	1	1
438	3	139.89  	464.732  	344.419  	-1	1	1
439	3	108.371  	466.325  	344.406  	-1	1	1
440	3	79.7482  	457.714  	345.779  	-1	1	1
441	3	54.7144  	446.819  	333.551  	-1	1	1
442	3	36.8251  	426.486  	319.445  	-1	1	1
443	3	27.098  	423.083  	291.536  	-1	1	1
444	3	20.6656  	435.844  	265.081  	-1	1	1
445	3	3.92232  	441.666  	241.333  	-1	1	1
446	3	-15.1044  	436.813  	266.234  	-1	1	1
447	3	-24.7725  	436.594  	294.541  	-1	1	1
448	3	-46.4337  	421.697  	309.866  	-1	1	1
449	3	-72.5489  	406.398  	307.139  	-1	1	1
450	3	-89.0968  	389.327  	287.412  	-1	1	1
451	3	-109.106  	366.252  	287.324  	-1	1	1
452	3	-108.246  	335.981  	296.438  	-1	1	1
453	3	-90.9682  	330.296  	321.018  	-1	1	1
454	3	-73.4055  	341.231  	343.933  	-1	1	1
455	3	-49.7786  	358.406  	358.812  	-1	1	1
456	3	-20.789  	357.675  	370.719  	-1	1	1
457	3	4.9629  	343.367  	360.002  	-1	1	1
458	3	-2.17187  	363.869  	339.039  	-1	1	1
459	3	10.4567  	366.32  	311.938  	-1	1	1
460	3	29.4747  	364.123  	287.247  	-1	1	1
461	3	34.1303  	344.689  	263.216  	-1	1	1
462	3	41.111  	314.478  	256.037  	-1	1	1
463	3	51.3723  	287.138  	264.784  	-1	1	1
464	3	59.2978  	258.879  	269.431  	-1	1	1
465	3	77.1675  	235.817  	281.599  	-1	1	1
466	3	88.3111  	215.414  	301.387  	-1	1	1
467	3	68.7029  	197.756  	285.881  	-1	1	1
468	3	73.1496  	182.598  	261.091  	-1	1	1
469	3	98.564  	173.852  	245.289  	-1	1	1
470	3	124.185  	156.266  	237.067  	-1	1	1
471	3	144.028  	136.06  	249.35  	-1	1	1
472	3	170.974  	129.924  	261.902  	-1	1	1
473	3	200.661  	137.19  	265.157  	-1	1	1
474	3	224.16  	133.115  	246.792  	-1	1	1
475	3	216.03  	118.05  	221.048  	-1	1	1
476	3	208.929  	106.718  	192.823  	-1	1	1
477	3	185.976  	110.798  	172.876  	-1	1	1
478	3	167.363  	133.086  	165.194  	-1	1	1
479	3	166.38  	164.097  	168.859  	-1	1	1
480	3	174.827  	190.548  	158.654  	-1	1	1
481	3	185.991  	219.254  	160.514  	-1	1	1
482	3	183.504  	244.418  	175.838  	-1	1	1
483	3	180.297  	267.952  	195.027  	-1	1	1
484	3	195.615  	284.471  	217.137  	-1	1	1
485	3	213.386  	284.194  	191.851  	-1	1	1
486	3	218.321  	308.3  	174.202  	-1	1	1
487	3	216.414  	336.447  	163.052  	-1	1	1
488	3	222.676  	323.67  	136.637  	-1	1	1
489	3	234.411  	313.304  	109.406  	-1	1	1
490	3	261.297  	308.725  	97.0491  	-1	1	1
491	3	291.016  	303.515  	105.995  	-1	1	1
492	3	306.765  	289.417  	128.103  	-1	1	1
493	3	310.09  	282.688  	157.512  	-1	1	1
494	3	299.062  	283.292  	187.068  	-1	1	1
495	3	284.089  	290.954  	212.661  	-1	1	1
496	3	262.792  	313.507  	214.935  	-1	1	1
497	3	242.232  	334.082  	219.991  	-1	1	1
498	3	259.456  	341.088  	195.783  	-1	1	1
499	3	271.546  	322.597  	174.902  	-1	1	1
500	3	269.458  	302.396  	151.625  	-1	1	1
501	3	268.531  	282.062  	128.386  	-1	1	1
502	3	275.394  	274.973  	98.525  	-1	1	1
503	3	261.589  	248.844  	103.863  	-1	1	1
504	3	249.223  	220.568  	106.622  	-1	1	1
505	3	254.125  	191.296  	99.7838  	-1	1	1
506	3	249.677  	161.666  	91.4444  	-1	1	1
507	3	229.642  	139.28  	100.122  	-1	1	1
508	3	208.098  	145.971  	118.254  	-1	1	1
509	3	202.903  	158.464  	145.577  	-1	1	1
510	3	209.525  	161.939  	175.988  	-1	1	1
511	3	223.761  	153.675  	201.604  	-1	1	1
512	3	252.739  	146.337  	206.408  	-1	1	1
513	3	279.117  	141.074  	193.513  	-1	1	1
514	3	307.636  	146.224  	186.131  	-1	1	1
515	3	336.685  	143.266  	174.087  	-1	1	1
516	3	364.321  	136.314  	183.451  	-1	1	1
517	3	377.353  	129.84  	210.332  	-1	1	1
518	3	382.79  	112.574  	234.986  	-1	1	1
519	3	368.006  	95.5413  	212.301  	-1	1	1
520	3	368.94  	92.991  	181.711  	-1	1	1
521	3	373.257  	101.75  	152.453  	-1	1	1
522	3	394.932  	110.433  	131.951  	-1	1	1
523	3	421.785  	111.036  	115.519  	-1	1	1
524	3	447.575  	117.818  	101.715  	-1	1	1
525	3	457.72  	117.25  	72.5592  	-1	1	1
526	3	454.563  	110.936  	43.4019  	-1	1	1
527	3	447.213  	86.7491  	23.648  	-1	1	1
528	3	431.63  	59.8197  	22.0478  	-1	1	1
529	3	419.322  	74.4658  	-1.67326  	-1	1	1
530	3	408.839  	52.6891  	-20.8492  	-1	1	1
531	3	397.765  	27.201  	-34.2267  	-1	1	1
532	3	394.673  	-1.62743  	-24.4237  	-1	1	1
533	3	404.215  	-24.3217  	-5.83774  	-1	1	1
534	3	420.834  	-48.9975  	2.58686  	-1	1	1
535	3	415.923  	-77.6067  	-6.81262  	-1	1	1
536	3	414.27  	-98.8341  	-27.75  	-1	1	1
537	3	407.32  	-97.382  	-57.4114  	-1	1	1
538	3	394.183  	-89.25  	-82.7502  	-1	1	1
539	3	380.192  	-81.2207  	-111.26  	-1	1	1
540	3	369.74  	-91.9939  	-138.829  	-1	1	1
541	3	352.685  	-106.007  	-161.35  	-1	1	1
542	3	335.917  	-118.408  	-184.776  	-1	1	1
543	3	348.642  	-113.579  	-211.742  	-1	1	1
544	3	351.749  	-84.2054  	-218.667  	-1	1	1
545	3	344.593  	-54.4968  	-221.538  	-1	1	1
546	3	332.866  	-28.6261  	-207.268  	-1	1	1
547	3	310.37  	-6.37602  	-203.179  	-1	1	1
548	3	285.218  	6.62471  	-195.015  	-1	1	1
549	3	268.217  	33.018  	-192.366  	-1	1	1
550	3	267.458  	63.7751  	-186.678  	-1	1	1
551	3	269.183  	94.3174  	-184.984  	-1	1	1
552	3	283.811  	121.823  	-189.015  	-1	1	1
553	3	310.631  	134.905  	-187.033  	-1	1	1
554	3	334.516  	135.617  	-167.017  	-1	1	1
555	3	349.802  	137.171  	-140.701  	-1	1	1
556	3	361.007  	134.938  	-112.77  	-1	1	1
557	3	350.377  	147.103  	-85.6517  	-1	1	1
558	3	337.892  	174.008  	-73.7907  	-1	1	1
559	3	346.948  	193.947  	-52.4285  	-1	1	1
560	3	362.196  	205.371  	-77.8691  	-1	1	1
561	3	371.359  	205.255  	-107.414  	-1	1	1
562	3	368.883  	206.185  	-137.709  	-1	1	1
563	3	370.624  	212.607  	-167.643  	-1	1	1
564	3	400.27  	211.111  	-162.451  	-1	1	1
565	3	428.642  	205.577  	-175.079  	-1	1	1
566	3	446.899  	185.675  	-192.081  	-1	1	1
567	3	456.119  	159.568  	-204.943  	-1	1	1
568	3	449.283  	130.544  	-211.955  	-1	1	1
569	3	441.284  	101.963  	-201.883  	-1	1	1
570	3	438.106  	77.5358  	-183.738  	-1	1	1
571	3	447.51  	48.0104  	-181.519  	-1	1	1
572	3	453.913  	27.2847  	-203.074  	-1	1	1
573	3	470.287  	18.7936  	-227.639  	-1	1	1
574	3	486.074  	35.0323  	-250.591  	-1	1	1
575	3	498.905  	61.181  	-260.786  	-1	1	1
576	3	507.841  	83.2992  	-279.679  	-1	1	1
577	3	511.132  	109.236  	-295.12  	-1	1	1
578	3	515.571  	138.857  	-300.46  	-1	1	1
579	3	505.853  	163.428  	-316.349  	-1	1	1
580	3	481.296  	181.942  	-322.208  	-1	1	1
581	3	451.262  	187.637  	-325.996  	-1	1	1
582	3	421  	183.436  	-334.727  	-1	1	1
583	3	429.899  	214.369  	-336.969  	-1	1	1
584	3	431.708  	244.312  	-342.404  	-1	1	1
585	3	405.592  	233.593  	-354.256  	-1	1	1
586	3	379.888  	220.327  	-358.607  	-1	1	1
587	3	350.094  	210.776  	-362.973  	-1	1	1
588	3	327.119  	191.433  	-356.91  	-1	1	1
589	3	352.63  	172.909  	-358.079  	-1	1	1
590	3	364.82  	145.115  	-364.84  	-1	1	1
591	3	335.033  	145.883  	-375.006  	-1	1	1
592	3	308.32  	153.797  	-385.681  	-1	1	1
593	3	308.866  	150.051  	-415.547  	-1	1	1
594	3	318.535  	155.648  	-444.604  	-1	1	1
595	3	339.512  	150.585  	-466.365  	-1	1	1
596	3	359.65  	132.098  	-481.111  	-1	1	1
597	3	376.929  	131.293  	-506.747  	-1	1	1
598	3	394.321  	125.839  	-531.794  	-1	1	1
599	3	408.396  	148.188  	-546.113  	-1	1	1
600	3	421.219  	175.358  	-545.869  	-1	1	1
601	3	410.041  	202.148  	-536.197  	-1	1	1
602	3	396.143  	216.393  	-512.879  	-1	1	1
603	3	380.882  	226.225  	-487.459  	-1	1	1
604	3	366.378  	219.305  	-462.207  	-1	1	1
605	3	357.834  	205.752  	-436.87  	-1	1	1
606	3	361.66  	192.121  	-409.791  	-1	1	1
607	3	380.747  	179.965  	-386.356  	-1	1	1
608	3	404.268  	178.807  	-367.332  	-1	1	1
609	3	434.153  	186.073  	-371.363  	-1	1	1
610	3	463.691  	179.651  	-369.024  	-1	1	1
611	3	493.515  	178.325  	-374.925  	-1	1	1
612	3	500.291  	185.664  	-403.701  	-1	1	1
613	3	510.527  	185.931  	-431.723  	-1	1	1
614	3	526.506  	190.788  	-457.227  	-1	1	1
615	3	528.473  	210.919  	-480.701  	-1	1	1
616	3	516.789  	239.146  	-475.395  	-1	1	1
617	3	535.547  	246.109  	-451.776  	-1	1	1
618	3	562.791  	233.207  	-451.072  	-1	1	1
619	3	586.243  	214.143  	-458.27  	-1	1	1
620	3	605.138  	193.283  	-470.586  	-1	1	1
621	3	629.307  	177.339  	-480.39  	-1	1	1
622	3	648.514  	154.459  	-471.418  	-1	1	1
623	3	660.929  	129.554  	-456.027  	-1	1	1
624	3	653.16  	109.657  	-435.195  	-1	1	1
625	3	637.046  	95.2773  	-413.478  	-1	1	1
626	3	617.811  	87.1632  	-390.795  	-1	1	1
627	3	622.584  	79.2749  	-361.52  	-1	1	1
628	3	643.652  	56.8659  	-356.661  	-1	1	1
629	3	659.618  	35.8176  	-371.083  	-1	1	1
630	3	663.607  	14.2127  	-392.81  	-1	1	1
631	3	669.616  	-9.38564  	-412.613  	-1	1	1
632	3	690.452  	-13.9902  	-436.377  	-1	1	1
633	3	711.099  	-2.35857  	-455.509  	-1	1	1
634	3	717.046  	25.0708  	-470.186  	-1	1	1
635	3	717.259  	55.1524  	-462.276  	-1	1	1
636	3	726.002  	77.1663  	-444.583  	-1	1	1
637	3	738.349  	79.6001  	-417.771  	-1	1	1
638	3	746.303  	77.1641  	-388.812  	-1	1	1
639	3	758.71  	91.5926  	-365.02  	-1	1	1
640	3	774.861  	110.832  	-346.804  	-1	1	1
641	3	781.399  	137.466  	-335.432  	-1	1	1
642	3	798.57  	162.748  	-338.889  	-1	1	1
643	3	814.089  	183.438  	-323.015  	-1	1	1
644	3	800.794  	211.625  	-319.211  	-1	1	1
645	3	780.324  	230.305  	-331.682  	-1	1	1
646	3	750.919  	240.532  	-334.585  	-1	1	1
647	3	721.602  	245.754  	-326.457  	-1	1	1
648	3	707.633  	233.109  	-301.68  	-1	1	1
649	3	701.881  	215.063  	-278.581  	-1	1	1
650	3	683.485  	201.63  	-258.137  	-1	1	1
651	3	660.961  	181.059  	-256.79  	-1	1	1
652	3	641.106  	156.773  	-256.38  	-1	1	1
653	3	615.229  	144.533  	-267.567  	-1	1	1
654	3	602.074  	144.658  	-296.031  	-1	1	1
655	3	577.345  	156.414  	-313.444  	-1	1	1
656	3	558.647  	179.897  	-321.144  	-1	1	1
657	3	542.735  	205.321  	-321.76  	-1	1	1
658	3	530.248  	234.563  	-316.277  	-1	1	1
659	3	529.249  	255.529  	-292.443  	-1	1	1
660	3	537.158  	274.819  	-270.16  	-1	1	1
661	3	549.268  	292.884  	-249.12  	-1	1	1
662	3	559.679  	315.321  	-230.5  	-1	1	1
663	3	586.099  	322.491  	-217.204  	-1	1	1
664	3	613.576  	314.371  	-206.139  	-1	1	1
665	3	632.435  	291.969  	-197.22  	-1	1	1
666	3	648.095  	263.808  	-194.634  	-1	1	1
667	3	655.812  	233.187  	-198.768  	-1	1	1
668	3	650.311  	205.047  	-191.25  	-1	1	1
669	3	624.991  	190.514  	-183.147  	-1	1	1
670	3	602.854  	202.637  	-165.266  	-1	1	1
671	3	595.507  	210.4  	-137.015  	-1	1	1
672	3	626.157  	208.636  	-132.093  	-1	1	1
673	3	652.42  	205.769  	-146.317  	-1	1	1
674	3	672.571  	219.309  	-164.708  	-1	1	1
675	3	681.462  	244.653  	-178.343  	-1	1	1
676	3	702.933  	265.752  	-190.61  	-1	1	1
677	3	705.535  	293.105  	-203.452  	-1	1	1
678	3	716.081  	309.815  	-180.58  	-1	1	1
679	3	735.278  	311.485  	-156.966  	-1	1	1
680	3	760.103  	307.815  	-140.328  	-1	1	1
681	3	787.975  	313.267  	-131.297  	-1	1	1
682	3	813.856  	303.779  	-116.135  	-1	1	1
683	3	826.514  	276.772  	-119.02  	-1	1	1
684	3	840.187  	252.284  	-130.061  	-1	1	1
685	3	838.842  	223.436  	-136.137  	-1	1	1
686	3	830.979  	194.27  	-127.831  	-1	1	1
687	3	802.878  	184.856  	-118.721  	-1	1	1