# LAMMPS data file for replicating chromosomes formed of rigid body monomers

8612		atoms
8		atom types
6050		ellipsoids
6001		bonds
2		bond types
12002		angles
4		angle types


-1140	1140	xlo xhi
-1140	1140	ylo yhi
-1140	1140	zlo zhi

Atoms # atom-ID atom-type x y z molecule-ID ellipsoid-flag density

1	5	548.371  	466.984  	226.252  	-1	1	1
2	3	526.675  	481.577  	244.125  	-1	1	1
3	3	498.907  	495.979  	241.521  	-1	1	1
4	3	481.39  	502.993  	216.759  	-1	1	1
5	3	476.531  	503.225  	186.472  	-1	1	1
6	3	478.848  	494.316  	158.054  	-1	1	1
7	3	478.821  	484.457  	129.803  	-1	1	1
8	3	494.365  	475.522  	103.487  	-1	1	1
9	3	515.825  	464.637  	83.8914  	-1	1	1
10	3	535.354  	462.398  	60.097  	-1	1	1
11	3	550.68  	453.736  	34.9669  	-1	1	1
12	3	565.995  	431.95  	19.2099  	-1	1	1
13	3	568.426  	401.649  	25.3487  	-1	1	1
14	3	572.118  	371.849  	29.1445  	-1	1	1
15	3	583.004  	343.828  	28.3851  	-1	1	1
16	3	594.321  	316.413  	23.294  	-1	1	1
17	3	607.505  	292.998  	9.26219  	-1	1	1
18	3	629.532  	289.189  	-12.0038  	-1	1	1
19	3	654.245  	300.14  	-26.8989  	-1	1	1
20	3	678.673  	316.998  	-35.9257  	-1	1	1
21	3	703.283  	334.952  	-46.0703  	-1	1	1
22	3	733.616  	336.705  	-51.6322  	-1	1	1
23	3	762.287  	337.708  	-42.3926  	-1	1	1
24	3	774.841  	330.053  	-15.5519  	-1	1	1
25	3	781.261  	318.92  	12.4062  	-1	1	1
26	3	776.809  	301.681  	37.6182  	-1	1	1
27	3	751.075  	294.045  	55.6727  	-1	1	1
28	3	722.878  	285.378  	50.5812  	-1	1	1
29	3	701.119  	278.877  	30.3166  	-1	1	1
30	3	677.215  	262.599  	18.7815  	-1	1	1
31	3	657.043  	245.683  	34.3893  	-1	1	1
32	3	649.271  	230.415  	61.0008  	-1	1	1
33	3	662.497  	218.543  	85.9344  	-1	1	1
34	3	690.785  	209.739  	98.2822  	-1	1	1
35	3	719.505  	196.999  	102.751  	-1	1	1
36	3	745.05  	179.519  	99.6887  	-1	1	1
37	3	761.573  	158.858  	82.6424  	-1	1	1
38	3	778.346  	139.562  	65.9121  	-1	1	1
39	3	800.845  	132.95  	45.1924  	-1	1	1
40	3	821.598  	128.448  	21.7071  	-1	1	1
41	3	842.568  	120.42  	1.60722  	-1	1	1
42	3	852.751  	105.909  	-23.6959  	-1	1	1
43	3	850.564  	84.4036  	-44.2942  	-1	1	1
44	3	830.57  	67.5623  	-60.7469  	-1	1	1
45	3	814.477  	42.7562  	-58.244  	-1	1	1
46	3	802.746  	13.6004  	-50.8441  	-1	1	1
47	3	807.882  	-5.12199  	-27.1351  	-1	1	1
48	3	824.344  	-15.7465  	-1.49401  	-1	1	1
49	3	824.123  	-13.2328  	28.9101  	-1	1	1
50	3	816.114  	-6.7276  	57.2842  	-1	1	1
51	3	800.798  	3.48717  	82.7319  	-1	1	1
52	3	780.429  	8.82451  	105.776  	-1	1	1
53	3	757.824  	28.9446  	109.663  	-1	1	1
54	3	730.748  	28.8238  	92.9608  	-1	1	1
55	3	707.451  	24.0634  	71.7969  	-1	1	1
56	3	705.838  	22.1843  	40.6417  	-1	1	1
57	3	708.721  	27.2918  	9.46789  	-1	1	1
58	3	717.551  	38.9314  	-18.4044  	-1	1	1
59	3	734.924  	60.0219  	-31.9977  	-1	1	1
60	3	757.809  	77.8694  	-24.3481  	-1	1	1
61	3	778.753  	88.0125  	-5.66829  	-1	1	1
62	3	771.521  	94.7302  	23.0187  	-1	1	1
63	3	756.332  	95.6914  	48.8927  	-1	1	1
64	3	734.608  	91.838  	69.1492  	-1	1	1
65	3	712.233  	79.5617  	85.2856  	-1	1	1
66	3	682.003  	85.0976  	89.7515  	-1	1	1
67	3	652.817  	82.6817  	94.4039  	-1	1	1
68	3	621.868  	77.6038  	95.3536  	-1	1	1
69	3	593.401  	67.9489  	90.8391  	-1	1	1
70	3	567.174  	53.7044  	104.503  	-1	1	1
71	3	554.916  	66.9357  	129.127  	-1	1	1
72	3	566.922  	85.9807  	149.979  	-1	1	1
73	3	594.481  	93.7896  	156.741  	-1	1	1
74	3	620.067  	88.0249  	171.465  	-1	1	1
75	3	640.41  	92.7517  	194.454  	-1	1	1
76	3	651.199  	80.5604  	220.813  	-1	1	1
77	3	668.846  	72.9647  	243.895  	-1	1	1
78	3	694.646  	79.8074  	259.459  	-1	1	1
79	3	713.349  	102.841  	263.674  	-1	1	1
80	3	730.111  	116.84  	285.344  	-1	1	1
81	3	732.629  	130.767  	312.733  	-1	1	1
82	3	722.636  	137.374  	340.205  	-1	1	1
83	3	719.131  	133.137  	370.342  	-1	1	1
84	3	733.42  	113.912  	388.849  	-1	1	1
85	3	748.664  	86.8609  	384.53  	-1	1	1
86	3	748.021  	56.4754  	380.581  	-1	1	1
87	3	722.903  	39.1775  	385.367  	-1	1	1
88	3	698.953  	20.1882  	388.462  	-1	1	1
89	3	679.688  	-3.16684  	388.407  	-1	1	1
90	3	686.986  	-1.07414  	358.377  	-1	1	1
91	3	688.869  	6.1965  	329.382  	-1	1	1
92	3	703.221  	2.21945  	303.108  	-1	1	1
93	3	718.065  	-21.7472  	289.572  	-1	1	1
94	3	728.81  	-49.4473  	281.957  	-1	1	1
95	3	732.319  	-79.2256  	287.243  	-1	1	1
96	3	734.699  	-104.178  	303.506  	-1	1	1
97	3	736.962  	-124.01  	326.777  	-1	1	1
98	3	729.308  	-130.573  	355.152  	-1	1	1
99	3	700.837  	-126.38  	367.275  	-1	1	1
100	3	678.973  	-114.701  	348.4  	-1	1	1
101	3	679.247  	-117.448  	318.85  	-1	1	1
102	3	681.57  	-138.181  	296.991  	-1	1	1
103	3	678.063  	-165.925  	284.782  	-1	1	1
104	3	682.31  	-194.292  	296.711  	-1	1	1
105	3	676.677  	-211.262  	322.221  	-1	1	1
106	3	660.284  	-224.181  	345.92  	-1	1	1
107	3	630.889  	-217.576  	348.053  	-1	1	1
108	3	611.522  	-199.118  	334.229  	-1	1	1
109	3	592.695  	-181.123  	318.047  	-1	1	1
110	3	565.635  	-175.042  	306.405  	-1	1	1
111	3	537.659  	-177.244  	293.409  	-1	1	1
112	3	520.823  	-193.49  	314.364  	-1	1	1
113	3	519.033  	-202.77  	343.91  	-1	1	1
114	3	524.886  	-205.089  	373.265  	-1	1	1
115	3	539.021  	-198.834  	400.562  	-1	1	1
116	3	556.548  	-185.077  	421.281  	-1	1	1
117	3	578.94  	-169.549  	437.815  	-1	1	1
118	3	607.797  	-180.364  	436.274  	-1	1	1
119	3	611.652  	-205.247  	418.071  	-1	1	1
120	3	608.332  	-231.729  	403.317  	-1	1	1
121	3	596.954  	-255.543  	390.673  	-1	1	1
122	3	573.515  	-269.293  	376.773  	-1	1	1
123	3	548.069  	-272.519  	361.678  	-1	1	1
124	3	519.21  	-264.02  	359.627  	-1	1	1
125	3	492.543  	-262.281  	374.597  	-1	1	1
126	3	465.407  	-259.947  	388.124  	-1	1	1
127	3	451.36  	-262.286  	361.005  	-1	1	1
128	3	435.487  	-258.74  	334.227  	-1	1	1
129	3	431.02  	-246.046  	306.765  	-1	1	1
130	3	432.641  	-217.134  	297.553  	-1	1	1
131	3	447.936  	-192.985  	308.886  	-1	1	1
132	3	435.457  	-189.614  	337.055  	-1	1	1
133	3	413.44  	-194.674  	358.421  	-1	1	1
134	3	383.554  	-195.223  	357.695  	-1	1	1
135	3	356.752  	-191.171  	372.44  	-1	1	1
136	3	329.681  	-184.695  	387.257  	-1	1	1
137	3	307.59  	-161.542  	384.05  	-1	1	1
138	3	294.544  	-133.462  	382.692  	-1	1	1
139	3	283.634  	-111.25  	366.591  	-1	1	1
140	3	285.06  	-87.004  	348.364  	-1	1	1
141	3	276.341  	-80.7406  	319.998  	-1	1	1
142	3	263.22  	-91.2692  	293.955  	-1	1	1
143	3	240.597  	-110.317  	286.813  	-1	1	1
144	3	229.954  	-137.845  	289.575  	-1	1	1
145	3	215.676  	-164.193  	298.874  	-1	1	1
146	3	234.388  	-187.57  	293.038  	-1	1	1
147	3	259.015  	-193.911  	277.516  	-1	1	1
148	3	281.498  	-210.217  	264.591  	-1	1	1
149	3	304.647  	-227.482  	256.2  	-1	1	1
150	3	329.682  	-243.958  	249.813  	-1	1	1
151	3	357.428  	-236.488  	259.286  	-1	1	1
152	3	373.551  	-219.312  	278.904  	-1	1	1
153	3	366.508  	-193.639  	294.112  	-1	1	1
154	3	350.366  	-166.813  	287.691  	-1	1	1
155	3	340.646  	-139.677  	275.611  	-1	1	1
156	3	339.812  	-112.409  	290.869  	-1	1	1
157	3	332.23  	-94.7081  	314.442  	-1	1	1
158	3	328.71  	-75.9879  	337.633  	-1	1	1
159	3	313.88  	-64.3642  	361.829  	-1	1	1
160	3	299.546  	-73.8523  	387.539  	-1	1	1
161	3	297.586  	-97.8311  	406.623  	-1	1	1
162	3	305.575  	-124.688  	417.171  	-1	1	1
163	3	323.229  	-147.157  	426.058  	-1	1	1
164	3	323.021  	-164.683  	450.376  	-1	1	1
165	3	300.395  	-167.608  	469.635  	-1	1	1
166	3	269.835  	-161.192  	469.374  	-1	1	1
167	3	244.094  	-170.249  	453.416  	-1	1	1
168	3	230.571  	-179.752  	426.148  	-1	1	1
169	3	209.012  	-179.21  	405.108  	-1	1	1
170	3	226.447  	-199.961  	389.199  	-1	1	1
171	3	240.479  	-225.974  	378.727  	-1	1	1
172	3	242.693  	-241.496  	404.877  	-1	1	1
173	3	220.126  	-235.684  	425.088  	-1	1	1
174	3	196.565  	-240.677  	443.579  	-1	1	1
175	3	181.669  	-242.514  	469.24  	-1	1	1
176	3	187.234  	-264.982  	488.51  	-1	1	1
177	3	188.613  	-296.013  	493.28  	-1	1	1
178	3	186.258  	-325.391  	498.983  	-1	1	1
179	3	165.854  	-346.191  	507.768  	-1	1	1
180	3	147.597  	-321.895  	505.855  	-1	1	1
181	3	140.054  	-294.382  	492.424  	-1	1	1
182	3	134.742  	-270.033  	476.818  	-1	1	1
183	3	137.993  	-238.88  	475.263  	-1	1	1
184	3	137.931  	-210.894  	488.152  	-1	1	1
185	3	134.312  	-192.471  	510.686  	-1	1	1
186	3	141.594  	-190.951  	541.121  	-1	1	1
187	3	142.413  	-204.41  	568.203  	-1	1	1
188	3	138.251  	-225.161  	590.495  	-1	1	1
189	3	140.637  	-231.948  	619.914  	-1	1	1
190	3	128.315  	-240.258  	647.505  	-1	1	1
191	3	105.596  	-246.333  	668.696  	-1	1	1
192	3	81.3972  	-260.853  	679.357  	-1	1	1
193	3	58.4314  	-275.528  	665.624  	-1	1	1
194	3	35.8913  	-290.425  	653.408  	-1	1	1
195	3	20.1541  	-275.248  	631.863  	-1	1	1
196	3	16.7841  	-253.343  	609.517  	-1	1	1
197	3	28.1264  	-228.425  	594.136  	-1	1	1
198	3	48.5464  	-212.575  	611.876  	-1	1	1
199	3	73.5612  	-202.396  	624.198  	-1	1	1
200	3	95.4242  	-198.925  	646.033  	-1	1	1
201	3	109.515  	-211.182  	670.005  	-1	1	1
202	3	101.685  	-222.167  	696.574  	-1	1	1
203	3	85.8363  	-214.97  	722.29  	-1	1	1
204	3	59.0898  	-201.324  	729.363  	-1	1	1
205	3	37.7358  	-203.888  	707.915  	-1	1	1
206	3	27.0597  	-204.385  	678.823  	-1	1	1
207	3	9.12152  	-222.242  	663.656  	-1	1	1
208	3	-11.1273  	-244.209  	659.82  	-1	1	1
209	3	-21.1332  	-272.284  	654.384  	-1	1	1
210	3	-34.3067  	-300.866  	657.591  	-1	1	1
211	3	-26.4981  	-330.006  	663.943  	-1	1	1
212	3	-23.0023  	-358.396  	671.721  	-1	1	1
213	3	5.44795  	-368.255  	676.598  	-1	1	1
214	3	30.1435  	-358.61  	660.59  	-1	1	1
215	3	43.5692  	-335.083  	645.62  	-1	1	1
216	3	55.2701  	-311.844  	630.64  	-1	1	1
217	3	78.669  	-301.72  	649.055  	-1	1	1
218	3	83.7239  	-309.529  	678.644  	-1	1	1
219	3	81.5601  	-332.183  	700.561  	-1	1	1
220	3	72.177  	-358.764  	709.537  	-1	1	1
221	3	77.7346  	-388.111  	702.487  	-1	1	1
222	3	70.2819  	-405.967  	679.009  	-1	1	1
223	3	63.3165  	-412.799  	650.864  	-1	1	1
224	3	65.4337  	-406.075  	621.282  	-1	1	1
225	3	65.5323  	-393.592  	591.553  	-1	1	1
226	3	68.9401  	-390.209  	561.376  	-1	1	1
227	3	96.302  	-391.92  	576.438  	-1	1	1
228	3	126.308  	-400.111  	573.228  	-1	1	1
229	3	148.911  	-415.583  	561.653  	-1	1	1
230	3	141.777  	-416.403  	532.237  	-1	1	1
231	3	114.304  	-411.467  	518.381  	-1	1	1
232	3	95.6712  	-389.663  	507.73  	-1	1	1
233	3	86.0094  	-365.149  	519.845  	-1	1	1
234	3	75.1744  	-357.482  	546.504  	-1	1	1
235	3	77.4897  	-351.01  	575.983  	-1	1	1
236	3	80.336  	-357.983  	605.248  	-1	1	1
237	3	100.943  	-370.639  	625.134  	-1	1	1
238	3	118.874  	-383.049  	646.023  	-1	1	1
239	3	121.207  	-396.134  	673.748  	-1	1	1
240	3	117.148  	-401.302  	703.752  	-1	1	1
241	3	131.866  	-411.133  	729.037  	-1	1	1
242	3	159.116  	-403.425  	740.608  	-1	1	1
243	3	187.848  	-395.255  	733.367  	-1	1	1
244	3	199.09  	-383.004  	707.041  	-1	1	1
245	3	174.933  	-365.634  	699.647  	-1	1	1
246	3	151.593  	-349.091  	712.222  	-1	1	1
247	3	153.36  	-329.932  	736.296  	-1	1	1
248	3	171.217  	-324.128  	760.69  	-1	1	1
249	3	199.606  	-316.278  	754.991  	-1	1	1
250	3	228.278  	-318.686  	742.169  	-1	1	1
251	3	256.528  	-319.589  	730.763  	-1	1	1
252	3	284.211  	-331.07  	720.389  	-1	1	1
253	3	311.18  	-334.221  	703.185  	-1	1	1
254	3	334.221  	-340.15  	685.076  	-1	1	1
255	3	359.558  	-332.203  	670.391  	-1	1	1
256	3	368.969  	-304.072  	679.856  	-1	1	1
257	3	378.738  	-286.205  	703.268  	-1	1	1
258	3	381.016  	-264.463  	724.94  	-1	1	1
259	3	363.997  	-241.078  	735.81  	-1	1	1
260	3	338.106  	-224.109  	732.353  	-1	1	1
261	3	311.13  	-218.021  	745.469  	-1	1	1
262	3	295.452  	-237.331  	728.431  	-1	1	1
263	3	278.119  	-247.301  	705.768  	-1	1	1
264	3	265.192  	-264.236  	682.047  	-1	1	1
265	3	286.152  	-287.103  	679.561  	-1	1	1
266	3	298.406  	-312.676  	668.617  	-1	1	1
267	3	307.017  	-341.186  	659.626  	-1	1	1
268	3	321.746  	-366.758  	650.03  	-1	1	1
269	3	332.05  	-392.578  	633.819  	-1	1	1
270	3	346.697  	-403.999  	610.249  	-1	1	1
271	3	350.141  	-395.761  	580.544  	-1	1	1
272	3	354.322  	-370.404  	564.972  	-1	1	1
273	3	339.715  	-341.601  	560.816  	-1	1	1
274	3	330.191  	-314.88  	571.298  	-1	1	1
275	3	318.93  	-286.178  	568.835  	-1	1	1
276	3	318.435  	-259.195  	554.873  	-1	1	1
277	3	313.243  	-238.876  	532.816  	-1	1	1
278	3	316.833  	-214.313  	514.66  	-1	1	1
279	3	319.887  	-185.133  	506.706  	-1	1	1
280	3	324.417  	-158.896  	520.171  	-1	1	1
281	3	321.836  	-154.059  	551.007  	-1	1	1
282	3	308.596  	-172.179  	572.091  	-1	1	1
283	3	305.985  	-195.088  	592.858  	-1	1	1
284	3	308.983  	-209.961  	618.597  	-1	1	1
285	3	303.661  	-223.883  	645.956  	-1	1	1
286	3	295.394  	-229.241  	675.549  	-1	1	1
287	3	281.306  	-204.398  	686.648  	-1	1	1
288	3	264.091  	-181.258  	699.542  	-1	1	1
289	3	250.959  	-155.763  	687.306  	-1	1	1
290	3	252.311  	-128.676  	674.379  	-1	1	1
291	3	262.803  	-117.259  	647.7  	-1	1	1
292	3	285.573  	-137.213  	656.276  	-1	1	1
293	3	309.947  	-155.719  	651.479  	-1	1	1
294	3	325.699  	-175.952  	634.593  	-1	1	1
295	3	307.703  	-164.111  	614.032  	-1	1	1
296	3	309.496  	-141.604  	594.27  	-1	1	1
297	3	335.25  	-123.167  	590.287  	-1	1	1
298	3	350.101  	-109.962  	612.104  	-1	1	1
299	3	353.811  	-105.014  	641.425  	-1	1	1
300	3	332.554  	-104.595  	662.839  	-1	1	1
301	3	302.586  	-103.96  	667.283  	-1	1	1
302	3	275.17  	-93.5676  	670.771  	-1	1	1
303	3	271.925  	-68.6591  	654.136  	-1	1	1
304	3	272.772  	-42.4189  	639.115  	-1	1	1
305	3	284.932  	-27.4518  	616.802  	-1	1	1
306	3	309.621  	-24.5015  	600.784  	-1	1	1
307	3	327.465  	-44.8566  	615.302  	-1	1	1
308	3	327.849  	-57.0389  	643.728  	-1	1	1
309	3	309.482  	-61.9321  	668.441  	-1	1	1
310	3	285.352  	-59.5101  	686.037  	-1	1	1
311	3	255.906  	-60.317  	692.349  	-1	1	1
312	3	234.104  	-66.4029  	671.771  	-1	1	1
313	3	228.681  	-78.3452  	645.007  	-1	1	1
314	3	229.104  	-104.684  	629.324  	-1	1	1
315	3	232.63  	-132.095  	616.176  	-1	1	1
316	3	241.811  	-159.724  	627.305  	-1	1	1
317	3	247.234  	-184.722  	644.013  	-1	1	1
318	3	236.292  	-200.129  	668.147  	-1	1	1
319	3	224.851  	-196.666  	696.36  	-1	1	1
320	3	223.837  	-177.814  	720.242  	-1	1	1
321	3	221.39  	-148.315  	725.146  	-1	1	1
322	3	223.231  	-117.223  	725.473  	-1	1	1
323	3	217.291  	-88.2459  	721.517  	-1	1	1
324	3	201.049  	-61.9319  	718.711  	-1	1	1
325	3	176.276  	-49.7304  	706.314  	-1	1	1
326	3	156.255  	-44.1783  	684.939  	-1	1	1
327	3	130.662  	-39.8291  	668.157  	-1	1	1
328	3	119.319  	-66.1405  	657.276  	-1	1	1
329	3	119.106  	-96.3529  	663.076  	-1	1	1
330	3	125.66  	-122.319  	679.458  	-1	1	1
331	3	127.593  	-120.149  	710.438  	-1	1	1
332	3	122.281  	-107.486  	737.745  	-1	1	1
333	3	107.264  	-95.9699  	760.571  	-1	1	1
334	3	82.14  	-91.8984  	777.286  	-1	1	1
335	3	53.3794  	-100.225  	782.743  	-1	1	1
336	3	25.8569  	-112.935  	773.854  	-1	1	1
337	3	15.6295  	-138.753  	761.46  	-1	1	1
338	3	22.1616  	-167.184  	765.441  	-1	1	1
339	3	37.2741  	-183.921  	787.01  	-1	1	1
340	3	43.9484  	-189.234  	815.797  	-1	1	1
341	3	38.822  	-165.943  	833.183  	-1	1	1
342	3	41.6293  	-139.023  	849.515  	-1	1	1
343	3	45.7164  	-114.13  	866.523  	-1	1	1
344	3	51.1256  	-84.2472  	872.852  	-1	1	1
345	3	62.3514  	-56.1145  	869.801  	-1	1	1
346	3	69.2944  	-44.1767  	842.484  	-1	1	1
347	3	59.9546  	-51.2146  	813.71  	-1	1	1
348	3	58.7073  	-63.8379  	786.571  	-1	1	1
349	3	64.0072  	-61.8924  	757.67  	-1	1	1
350	3	83.2703  	-45.1559  	740.632  	-1	1	1
351	3	101.666  	-26.1968  	725.026  	-1	1	1
352	3	105.348  	-21.2802  	755.58  	-1	1	1
353	3	114.456  	-13.2371  	782.825  	-1	1	1
354	3	119.774  	12.8006  	797.904  	-1	1	1
355	3	119.625  	42.4695  	792.58  	-1	1	1
356	3	100.045  	63.8212  	802.181  	-1	1	1
357	3	85.0885  	81.2644  	823.143  	-1	1	1
358	3	91.0052  	105.925  	840.993  	-1	1	1
359	3	112.739  	124.915  	837.416  	-1	1	1
360	3	135.456  	142.478  	826.007  	-1	1	1
361	3	157.192  	153.785  	805.992  	-1	1	1
362	3	174.531  	149.655  	780.376  	-1	1	1
363	3	181.881  	147.556  	749.291  	-1	1	1
364	3	202.459  	127.34  	759.38  	-1	1	1
365	3	230.802  	114.864  	754.357  	-1	1	1
366	3	245.569  	105.292  	728.432  	-1	1	1
367	3	241.437  	88.0778  	702.897  	-1	1	1
368	3	218.137  	82.6487  	684.6  	-1	1	1
369	3	200.858  	97.8087  	663.241  	-1	1	1
370	3	189.017  	108.571  	637.915  	-1	1	1
371	3	186.126  	96.6321  	609.485  	-1	1	1
372	3	190.532  	91.673  	579.647  	-1	1	1
373	3	198.771  	91.7607  	549.851  	-1	1	1
374	3	205.968  	85.0104  	520.699  	-1	1	1
375	3	204.175  	97.4648  	492.476  	-1	1	1
376	3	206.267  	124.832  	476.575  	-1	1	1
377	3	214.661  	154.033  	473.106  	-1	1	1
378	3	228.37  	178.975  	485.402  	-1	1	1
379	3	234.925  	189.844  	512.708  	-1	1	1
380	3	222.661  	180.619  	539.033  	-1	1	1
381	3	206.481  	167.367  	561.089  	-1	1	1
382	3	185.875  	144.983  	557.318  	-1	1	1
383	3	165.255  	127.27  	541.71  	-1	1	1
384	3	146.53  	113.795  	523.349  	-1	1	1
385	3	117.729  	105.533  	516.802  	-1	1	1
386	3	89.1998  	95.7095  	516.698  	-1	1	1
387	3	61.1737  	85.1447  	512.582  	-1	1	1
388	3	39.6636  	71.0366  	495.957  	-1	1	1
389	3	26.2362  	64.5292  	469.444  	-1	1	1
390	3	19.3979  	86.1698  	447.212  	-1	1	1
391	3	17.841  	109.489  	426.563  	-1	1	1
392	3	26.5136  	134.624  	411.347  	-1	1	1
393	3	36.2301  	162.712  	412.689  	-1	1	1
394	3	37.7017  	177.799  	440.237  	-1	1	1
395	3	38.8462  	194.408  	467.239  	-1	1	1
396	3	37.6513  	198.65  	498.614  	-1	1	1
397	3	31.5772  	196.847  	529.055  	-1	1	1
398	3	37.3585  	183.168  	555.394  	-1	1	1
399	3	45.6391  	153.814  	561.312  	-1	1	1
400	3	55.1522  	160.498  	533.305  	-1	1	1
401	3	71.4168  	177.285  	512.439  	-1	1	1
402	3	83.3085  	204.695  	504.199  	-1	1	1
403	3	86.818  	230.617  	486.72  	-1	1	1
404	3	86.1468  	258.133  	474.576  	-1	1	1
405	3	75.1326  	286.121  	467.847  	-1	1	1
406	3	57.1299  	309.128  	460.748  	-1	1	1
407	3	47.4984  	324.575  	435.946  	-1	1	1
408	3	38.3519  	351.169  	422.225  	-1	1	1
409	3	48.291  	360.175  	395.763  	-1	1	1
410	3	66.0294  	345.067  	374.69  	-1	1	1
411	3	81.5283  	318.95  	368.803  	-1	1	1
412	3	77.936  	335.074  	343.716  	-1	1	1
413	3	88.7779  	336.158  	315.267  	-1	1	1
414	3	93.0252  	325.664  	286.778  	-1	1	1
415	3	80.952  	314.497  	258.999  	-1	1	1
416	3	73.4291  	289.99  	240.415  	-1	1	1
417	3	64.5197  	270.974  	263.196  	-1	1	1
418	3	92.8861  	277.059  	274.287  	-1	1	1
419	3	122.827  	280.07  	278.116  	-1	1	1
420	3	139.503  	303.334  	285.66  	-1	1	1
421	3	152.85  	327.261  	299.554  	-1	1	1
422	3	155.657  	348.314  	322.552  	-1	1	1
423	3	165.458  	357.517  	349.795  	-1	1	1
424	3	158.625  	356.942  	380.63  	-1	1	1
425	3	169.227  	364.358  	408.309  	-1	1	1
426	3	192.374  	384.039  	408.702  	-1	1	1
427	3	197.296  	380.446  	378.49  	-1	1	1
428	3	210.226  	352.785  	375.434  	-1	1	1
429	3	211.836  	326.486  	392.455  	-1	1	1
430	3	195.605  	307.54  	409.511  	-1	1	1
431	3	179.042  	321.656  	433.114  	-1	1	1
432	3	166.214  	343.881  	450.062  	-1	1	1
433	3	148.367  	368.001  	456.12  	-1	1	1
434	3	137.664  	393.347  	443.146  	-1	1	1
435	3	138.28  	412.561  	420.11  	-1	1	1
436	3	142.167  	440.566  	409.63  	-1	1	1
437	3	157.096  	466.206  	398.991  	-1	1	1
438	3	179.713  	474.174  	377.717  	-1	1	1
439	3	150.594  	482.453  	370.922  	-1	1	1
440	3	120.609  	478.486  	374.742  	-1	1	1
441	3	92.8763  	474.469  	364.664  	-1	1	1
442	3	65.7461  	468.29  	350.465  	-1	1	1
443	3	51.7828  	477.548  	323.732  	-1	1	1
444	3	39.2793  	486.578  	297.285  	-1	1	1
445	3	30.032  	475.135  	269.315  	-1	1	1
446	3	16.3686  	448.761  	276.779  	-1	1	1
447	3	-9.41517  	437.174  	288.225  	-1	1	1
448	3	-36.9876  	430.887  	301.92  	-1	1	1
449	3	-67.8126  	423.59  	303.742  	-1	1	1
450	3	-85.5515  	398.906  	303.76  	-1	1	1
451	3	-94.4028  	369.044  	303.437  	-1	1	1
452	3	-97.2585  	339.677  	297.641  	-1	1	1
453	3	-90.5656  	313.592  	311.353  	-1	1	1
454	3	-81.9381  	303.305  	338.715  	-1	1	1
455	3	-63.9586  	295.669  	361.16  	-1	1	1
456	3	-36.1176  	287.83  	371.697  	-1	1	1
457	3	-8.58144  	301.044  	371.273  	-1	1	1
458	3	-22.518  	326.062  	360.588  	-1	1	1
459	3	-9.25669  	322.772  	332.769  	-1	1	1
460	3	0.916069  	309.141  	306.125  	-1	1	1
461	3	7.07041  	287.863  	284.581  	-1	1	1
462	3	18.4602  	260.461  	278.576  	-1	1	1
463	3	37.0865  	236.735  	286.372  	-1	1	1
464	3	62.8577  	227.105  	299.756  	-1	1	1
465	3	89.7607  	235.652  	313.821  	-1	1	1
466	3	116.116  	251.087  	307.582  	-1	1	1
467	3	103.313  	242.48  	280.761  	-1	1	1
468	3	101.973  	223.371  	257.229  	-1	1	1
469	3	114.333  	196.392  	251.957  	-1	1	1
470	3	135.572  	176.11  	243.355  	-1	1	1
471	3	166.826  	175.376  	242.317  	-1	1	1
472	3	196.65  	174.731  	234.423  	-1	1	1
473	3	216.858  	174.072  	212.186  	-1	1	1
474	3	234.973  	165.778  	188.458  	-1	1	1
475	3	251.509  	164.787  	162.399  	-1	1	1
476	3	250.757  	169.51  	132.983  	-1	1	1
477	3	226.666  	179.976  	117.384  	-1	1	1
478	3	197.185  	184.708  	114.107  	-1	1	1
479	3	168.028  	195.283  	122.074  	-1	1	1
480	3	144.353  	196.851  	140.684  	-1	1	1
481	3	127.65  	208.464  	163.638  	-1	1	1
482	3	116.237  	219.933  	188.79  	-1	1	1
483	3	125.808  	233.506  	214.399  	-1	1	1
484	3	145.43  	251.917  	230.188  	-1	1	1
485	3	174.036  	263.098  	227.648  	-1	1	1
486	3	180.94  	280.512  	202.798  	-1	1	1
487	3	182.638  	300.111  	178.825  	-1	1	1
488	3	192.095  	301.158  	150.38  	-1	1	1
489	3	201.974  	280.768  	128.439  	-1	1	1
490	3	210.431  	254.286  	115.03  	-1	1	1
491	3	228.789  	230.264  	122.318  	-1	1	1
492	3	239.834  	214.559  	144.533  	-1	1	1
493	3	248.829  	210.771  	173.725  	-1	1	1
494	3	248.695  	216.566  	202.798  	-1	1	1
495	3	256.354  	228.969  	230.483  	-1	1	1
496	3	249.599  	255.449  	243.202  	-1	1	1
497	3	251.499  	284.13  	250.603  	-1	1	1
498	3	259.674  	304.63  	229.802  	-1	1	1
499	3	260.804  	304.769  	199.128  	-1	1	1
500	3	266.897  	303.834  	168.972  	-1	1	1
501	3	268.808  	303.376  	138.009  	-1	1	1
502	3	270.57  	298.713  	107.321  	-1	1	1
503	3	270.972  	269.162  	111.154  	-1	1	1
504	3	262.071  	241.698  	100.831  	-1	1	1
505	3	260.284  	212.416  	95.0664  	-1	1	1
506	3	259.96  	183.182  	86.3712  	-1	1	1
507	3	258.448  	152.109  	88.4803  	-1	1	1
508	3	241.943  	132.783  	106.547  	-1	1	1
509	3	233.892  	124.651  	134.829  	-1	1	1
510	3	238.014  	125.551  	164.664  	-1	1	1
511	3	255.978  	139.048  	184.271  	-1	1	1
512	3	282.673  	153.021  	189.741  	-1	1	1
513	3	309.96  	166.318  	191.273  	-1	1	1
514	3	338.446  	174.643  	182.148  	-1	1	1
515	3	366.386  	181.944  	172.113  	-1	1	1
516	3	395.539  	182.472  	181.433  	-1	1	1
517	3	404.651  	179.22  	211.881  	-1	1	1
518	3	384.125  	163.923  	228.557  	-1	1	1
519	3	360.522  	146.079  	220.959  	-1	1	1
520	3	356.365  	139.287  	191.675  	-1	1	1
521	3	350.165  	145.957  	161.629  	-1	1	1
522	3	363.795  	137.513  	135.916  	-1	1	1
523	3	387.864  	139.427  	118.508  	-1	1	1
524	3	402.801  	135.139  	91.5381  	-1	1	1
525	3	412.291  	122.807  	65.9714  	-1	1	1
526	3	422.029  	104.055  	44.4142  	-1	1	1
527	3	413.546  	88.8441  	19.5249  	-1	1	1
528	3	409.718  	62.9071  	5.08799  	-1	1	1
529	3	409.088  	81.4076  	-19.8933  	-1	1	1
530	3	421.088  	64.9671  	-41.8239  	-1	1	1
531	3	416.47  	33.9113  	-41.7486  	-1	1	1
532	3	408.616  	9.63286  	-26.0307  	-1	1	1
533	3	405.036  	-14.5684  	-7.39455  	-1	1	1
534	3	418.551  	-35.6781  	10.3767  	-1	1	1
535	3	430.794  	-62.7565  	2.08461  	-1	1	1
536	3	444.763  	-85.0364  	-13.2604  	-1	1	1
537	3	433.147  	-90.5426  	-41.16  	-1	1	1
538	3	418.409  	-102.392  	-64.3945  	-1	1	1
539	3	405.239  	-110.504  	-89.964  	-1	1	1
540	3	388.259  	-100.401  	-111.598  	-1	1	1
541	3	369.407  	-103.078  	-135.985  	-1	1	1
542	3	356.07  	-109.151  	-162.077  	-1	1	1
543	3	348.003  	-96.0125  	-187.425  	-1	1	1
544	3	363.011  	-73.4835  	-201.714  	-1	1	1
545	3	374.818  	-45.7335  	-207.517  	-1	1	1
546	3	367.286  	-16.5008  	-206.628  	-1	1	1
547	3	351.016  	9.15275  	-210.232  	-1	1	1
548	3	324.632  	22.2603  	-202.365  	-1	1	1
549	3	297.922  	33.0923  	-197.889  	-1	1	1
550	3	283.238  	60.0853  	-196.896  	-1	1	1
551	3	274.991  	90.7585  	-196.834  	-1	1	1
552	3	271.829  	120.292  	-194.53  	-1	1	1
553	3	277.619  	150.254  	-196.902  	-1	1	1
554	3	287.698  	175.472  	-180.164  	-1	1	1
555	3	307.004  	181.24  	-156.894  	-1	1	1
556	3	315.989  	183.331  	-127.969  	-1	1	1
557	3	323.541  	181.573  	-98.6568  	-1	1	1
558	3	340.634  	190.439  	-74.7155  	-1	1	1
559	3	367.388  	190.492  	-61.7966  	-1	1	1
560	3	389.036  	205.747  	-75.8608  	-1	1	1
561	3	384.981  	214.806  	-104.063  	-1	1	1
562	3	380.177  	216.694  	-134.913  	-1	1	1
563	3	401.148  	210.687  	-156.648  	-1	1	1
564	3	424.836  	197.029  	-171.495  	-1	1	1
565	3	449.565  	182.487  	-180.196  	-1	1	1
566	3	467.224  	164.166  	-198.123  	-1	1	1
567	3	472.041  	134.58  	-198.839  	-1	1	1
568	3	462.065  	106.11  	-194.244  	-1	1	1
569	3	448.258  	78.8007  	-195.896  	-1	1	1
570	3	443.279  	51.429  	-183.992  	-1	1	1
571	3	446.236  	20.8157  	-186.042  	-1	1	1
572	3	459.349  	-2.61544  	-200.601  	-1	1	1
573	3	472.903  	-6.52931  	-227.912  	-1	1	1
574	3	472.457  	6.52998  	-256.285  	-1	1	1
575	3	464.732  	32.8655  	-268.574  	-1	1	1
576	3	471.43  	61.1509  	-278.826  	-1	1	1
577	3	483.324  	84.2639  	-297.106  	-1	1	1
578	3	480.006  	109.44  	-313.155  	-1	1	1
579	3	465.278  	134.188  	-322.767  	-1	1	1
580	3	441.271  	152.253  	-329.325  	-1	1	1
581	3	417.809  	169.642  	-339.113  	-1	1	1
582	3	400.135  	183.26  	-359.548  	-1	1	1
583	3	398.778  	201.091  	-385.143  	-1	1	1
584	3	416.254  	216.517  	-404.122  	-1	1	1
585	3	391.597  	229.186  	-417.097  	-1	1	1
586	3	368.527  	234.369  	-436.686  	-1	1	1
587	3	340.84  	233.649  	-447.016  	-1	1	1
588	3	323.16  	236.286  	-422.737  	-1	1	1
589	3	331.104  	219.805  	-397.043  	-1	1	1
590	3	349.25  	210.171  	-375.247  	-1	1	1
591	3	359.968  	185.573  	-355.654  	-1	1	1
592	3	367.784  	157.21  	-349.991  	-1	1	1
593	3	377.945  	131.139  	-360.519  	-1	1	1
594	3	383.442  	110.85  	-383.51  	-1	1	1
595	3	394.89  	106.329  	-413.017  	-1	1	1
596	3	404.072  	103.112  	-441.51  	-1	1	1
597	3	422.642  	110.638  	-465.698  	-1	1	1
598	3	442.341  	124.689  	-484.462  	-1	1	1
599	3	457.431  	140.803  	-504.73  	-1	1	1
600	3	459.431  	166.297  	-522.805  	-1	1	1
601	3	453.183  	196.042  	-529.937  	-1	1	1
602	3	430.959  	213.936  	-520.776  	-1	1	1
603	3	402.777  	213.368  	-512.619  	-1	1	1
604	3	377.684  	206.024  	-494.879  	-1	1	1
605	3	365.341  	185.252  	-474.644  	-1	1	1
606	3	373.858  	165.872  	-452.636  	-1	1	1
607	3	386.209  	157.689  	-426.009  	-1	1	1
608	3	401.886  	153.608  	-401.044  	-1	1	1
609	3	427.278  	147.487  	-384.045  	-1	1	1
610	3	455.687  	158.606  	-383.174  	-1	1	1
611	3	481.459  	174.568  	-385.227  	-1	1	1
612	3	505.66  	190.583  	-392.938  	-1	1	1
613	3	513.486  	210.474  	-413.435  	-1	1	1
614	3	522.138  	226.827  	-436.512  	-1	1	1
615	3	527.151  	251.433  	-454.073  	-1	1	1
616	3	535.952  	280.587  	-447.795  	-1	1	1
617	3	560.639  	274.746  	-430.408  	-1	1	1
618	3	580.011  	251.43  	-431.994  	-1	1	1
619	3	580.974  	228.003  	-451.429  	-1	1	1
620	3	590.8  	203.406  	-467.771  	-1	1	1
621	3	604.408  	176.649  	-472.915  	-1	1	1
622	3	609.494  	147.053  	-472.654  	-1	1	1
623	3	611.739  	116.473  	-474.848  	-1	1	1
624	3	594.599  	94.2928  	-461.861  	-1	1	1
625	3	585.67  	77.2059  	-438.398  	-1	1	1
626	3	587.227  	57.3694  	-414.889  	-1	1	1
627	3	595.093  	49.0185  	-386.78  	-1	1	1
628	3	616.367  	41.4844  	-366.81  	-1	1	1
629	3	645.155  	29.9407  	-365.448  	-1	1	1
630	3	668.71  	20.0104  	-380.636  	-1	1	1
631	3	683.009  	6.1515  	-403.812  	-1	1	1
632	3	701.545  	-2.62537  	-428.21  	-1	1	1
633	3	702.315  	11.0421  	-455.401  	-1	1	1
634	3	706.197  	35.324  	-474.105  	-1	1	1
635	3	708.213  	63.785  	-485.662  	-1	1	1
636	3	706.286  	80.5207  	-460.304  	-1	1	1
637	3	708.608  	85.7823  	-429.318  	-1	1	1
638	3	719.993  	93.9295  	-401.183  	-1	1	1
639	3	735.297  	99.6771  	-374.524  	-1	1	1
640	3	751.466  	119.244  	-356.757  	-1	1	1
641	3	769.466  	144.537  	-352.287  	-1	1	1
642	3	791.288  	164.559  	-341.814  	-1	1	1
643	3	811.511  	181.275  	-327.167  	-1	1	1
644	3	811.556  	200.428  	-304.023  	-1	1	1
645	3	785.413  	214.89  	-300.024  	-1	1	1
646	3	756.148  	217.745  	-306.209  	-1	1	1
647	3	727.905  	222.008  	-295.091  	-1	1	1
648	3	707.511  	228.215  	-273.326  	-1	1	1
649	3	688.326  	242.045  	-254.248  	-1	1	1
650	3	664.027  	236.603  	-234.885  	-1	1	1
651	3	638.955  	218.624  	-227.994  	-1	1	1
652	3	622.433  	196.99  	-240.559  	-1	1	1
653	3	608.084  	193.568  	-267.314  	-1	1	1
654	3	598.106  	191.91  	-295.563  	-1	1	1
655	3	588.804  	200.542  	-323.86  	-1	1	1
656	3	574.258  	223.442  	-341.371  	-1	1	1
657	3	555.8  	247.648  	-336.508  	-1	1	1
658	3	542.031  	273.871  	-326.406  	-1	1	1
659	3	540.666  	286.931  	-299.276  	-1	1	1
660	3	539.692  	302.807  	-273.543  	-1	1	1
661	3	547.675  	313.789  	-245.709  	-1	1	1
662	3	569.773  	317.096  	-223.843  	-1	1	1
663	3	591.916  	303.61  	-207.292  	-1	1	1
664	3	613.926  	291.173  	-189.945  	-1	1	1
665	3	635.603  	274.576  	-176.917  	-1	1	1
666	3	650.666  	249.518  	-179.917  	-1	1	1
667	3	646.802  	218.523  	-181.77  	-1	1	1
668	3	636.028  	189.791  	-177.962  	-1	1	1
669	3	612.806  	170.039  	-175.994  	-1	1	1
670	3	595.179  	156.913  	-154.896  	-1	1	1
671	3	601.152  	163.468  	-125.793  	-1	1	1
672	3	627.57  	177.193  	-115.919  	-1	1	1
673	3	649.267  	193.792  	-130.733  	-1	1	1
674	3	666.467  	202.432  	-154.856  	-1	1	1
675	3	681.338  	215.943  	-178.315  	-1	1	1
676	3	690.093  	226.852  	-206.001  	-1	1	1
677	3	696.158  	252.294  	-220.425  	-1	1	1
678	3	706.122  	279.889  	-208.436  	-1	1	1
679	3	710.696  	290.663  	-180.08  	-1	1	1
680	3	722.767  	275.45  	-156.714  	-1	1	1
681	3	744.739  	254.007  	-152.619  	-1	1	1
682	3	760.937  	228.636  	-152.372  	-1	1	1
683	3	776.894  	203.725  	-157.735  	-1	1	1
684	3	793.938  	179.212  	-156.096  	-1	1	1
685	3	810.624  	154.216  	-154.894  	-1	1	1
686	3	819.997  	127.459  	-143.713  	-1	1	1