# LAMMPS data file for replicating chromosomes formed of rigid body monomers

8112		atoms
8		atom types
5550		ellipsoids
5501		bonds
2		bond types
11002		angles
4		angle types


-1140	1140	xlo xhi
-1140	1140	ylo yhi
-1140	1140	zlo zhi

Atoms # atom-ID atom-type x y z molecule-ID ellipsoid-flag density

1	5	45.3198  	663.642  	-309.682  	-1	1	1
2	3	42.5908  	650.863  	-280.915  	-1	1	1
3	3	42.5181  	666.307  	-255.643  	-1	1	1
4	3	31.6535  	690.163  	-238.577  	-1	1	1
5	3	27.9909  	718.518  	-229.233  	-1	1	1
6	3	27.4419  	746.95  	-216.694  	-1	1	1
7	3	20.6815  	770.301  	-197.888  	-1	1	1
8	3	13.929  	792.955  	-178.211  	-1	1	1
9	3	-4.71639  	807.694  	-158.932  	-1	1	1
10	3	-35.5857  	810.721  	-156.204  	-1	1	1
11	3	-55.1377  	789.767  	-150.511  	-1	1	1
12	3	-46.6474  	760.085  	-150.943  	-1	1	1
13	3	-35.1503  	733.818  	-144.206  	-1	1	1
14	3	-10.7901  	719.001  	-131.801  	-1	1	1
15	3	14.4346  	714.68  	-116.145  	-1	1	1
16	3	44.0378  	706.834  	-116.196  	-1	1	1
17	3	56.4645  	685.546  	-135.136  	-1	1	1
18	3	38.604  	684.136  	-161.842  	-1	1	1
19	3	8.59947  	681.998  	-161.171  	-1	1	1
20	3	-18.5057  	685.534  	-148.166  	-1	1	1
21	3	-37.2362  	688.431  	-122.913  	-1	1	1
22	3	-42.0648  	696.323  	-93.8116  	-1	1	1
23	3	-52.2956  	704.583  	-65.4076  	-1	1	1
24	3	-41.6887  	724.366  	-43.2728  	-1	1	1
25	3	-42.1983  	752.072  	-29.8626  	-1	1	1
26	3	-39.4747  	781.015  	-20.9661  	-1	1	1
27	3	-31.9687  	802.926  	0.429881  	-1	1	1
28	3	-20.9055  	819.296  	22.9103  	-1	1	1
29	3	-20.7603  	824.363  	52.9405  	-1	1	1
30	3	-33.8717  	822.912  	80.0065  	-1	1	1
31	3	-48.6799  	796.161  	77.9443  	-1	1	1
32	3	-57.8281  	778.25  	54.7728  	-1	1	1
33	3	-42.8307  	772.294  	29.3031  	-1	1	1
34	3	-14.2717  	767.99  	17.2152  	-1	1	1
35	3	-2.47931  	779.878  	-9.00802  	-1	1	1
36	3	2.77491  	803.498  	-27.5499  	-1	1	1
37	3	-16.9106  	826.393  	-33.4501  	-1	1	1
38	3	-21.7814  	850.915  	-17.1993  	-1	1	1
39	3	-19.5371  	862.168  	11.7457  	-1	1	1
40	3	3.80149  	840.975  	13.5657  	-1	1	1
41	3	22.9391  	817.443  	11.5189  	-1	1	1
42	3	44.4296  	795.553  	8.06261  	-1	1	1
43	3	65.6401  	772.695  	11.819  	-1	1	1
44	3	77.3079  	743.679  	8.28294  	-1	1	1
45	3	82.4085  	737.326  	-21.4335  	-1	1	1
46	3	78.392  	711.323  	-6.32611  	-1	1	1
47	3	77.259  	702.75  	22.6609  	-1	1	1
48	3	68.4104  	697.468  	52.1303  	-1	1	1
49	3	64.4376  	690.306  	81.6853  	-1	1	1
50	3	65.5285  	667.36  	103.852  	-1	1	1
51	3	62.4682  	656.682  	75.7755  	-1	1	1
52	3	34.8452  	665.953  	59.8365  	-1	1	1
53	3	10.1977  	683.387  	62.6178  	-1	1	1
54	3	-2.15002  	694.262  	88.8608  	-1	1	1
55	3	-5.58651  	680.696  	115.676  	-1	1	1
56	3	10.639  	655.078  	111.498  	-1	1	1
57	3	28.2717  	637.142  	94.6959  	-1	1	1
58	3	41.308  	626.985  	68.091  	-1	1	1
59	3	67.61  	626.657  	50.963  	-1	1	1
60	3	91.5203  	645.208  	39.6269  	-1	1	1
61	3	117.408  	656.204  	31.2672  	-1	1	1
62	3	125.675  	666.071  	4.09988  	-1	1	1
63	3	117.563  	661.533  	-24.4863  	-1	1	1
64	3	89.9056  	657.388  	-38.8315  	-1	1	1
65	3	60.4799  	653.738  	-44.4277  	-1	1	1
66	3	30.9867  	655.712  	-54.6274  	-1	1	1
67	3	30.913  	653.89  	-84.4542  	-1	1	1
68	3	33.8051  	641.209  	-112.996  	-1	1	1
69	3	45.7843  	626.545  	-136.733  	-1	1	1
70	3	51.4323  	641.224  	-162.515  	-1	1	1
71	3	37.0533  	642.886  	-190.202  	-1	1	1
72	3	8.85489  	643.232  	-203.757  	-1	1	1
73	3	-14.976  	661.24  	-207.879  	-1	1	1
74	3	-27.5015  	687.391  	-198.595  	-1	1	1
75	3	-4.55318  	706.375  	-193.628  	-1	1	1
76	3	24.6693  	715.144  	-191.114  	-1	1	1
77	3	45.5632  	734.129  	-179.005  	-1	1	1
78	3	66.0428  	748.345  	-160.097  	-1	1	1
79	3	64.2229  	755.811  	-128.479  	-1	1	1
80	3	67.3875  	776.27  	-105.617  	-1	1	1
81	3	91.4147  	794.771  	-110.356  	-1	1	1
82	3	113.714  	815.078  	-102.241  	-1	1	1
83	3	130.143  	822.344  	-78.0441  	-1	1	1
84	3	128.048  	819.477  	-47.3103  	-1	1	1
85	3	122.109  	803.1  	-21.6422  	-1	1	1
86	3	121.4  	778.815  	-2.27044  	-1	1	1
87	3	148.456  	766.754  	5.8359  	-1	1	1
88	3	177.829  	764.931  	9.01943  	-1	1	1
89	3	200.466  	783.368  	-2.80657  	-1	1	1
90	3	216.983  	796.025  	-24.8444  	-1	1	1
91	3	223.378  	787.77  	-54.6172  	-1	1	1
92	3	220.835  	764.157  	-74.5409  	-1	1	1
93	3	215.176  	732.515  	-79.1656  	-1	1	1
94	3	215.348  	703.718  	-71.4292  	-1	1	1
95	3	202.373  	681.529  	-56.0792  	-1	1	1
96	3	191.113  	653.36  	-52.9187  	-1	1	1
97	3	176.938  	654.83  	-81.4012  	-1	1	1
98	3	177.751  	678.372  	-102.34  	-1	1	1
99	3	169.048  	707.643  	-105.477  	-1	1	1
100	3	172.868  	737.474  	-103.22  	-1	1	1
101	3	169.891  	763.982  	-86.5625  	-1	1	1
102	3	169.7  	787.602  	-67.0245  	-1	1	1
103	3	162.908  	800.651  	-40.4261  	-1	1	1
104	3	161.959  	805.316  	-9.61857  	-1	1	1
105	3	139.302  	807.78  	11.6089  	-1	1	1
106	3	113.286  	811.354  	29.6977  	-1	1	1
107	3	86.624  	812.559  	43.8456  	-1	1	1
108	3	99.6863  	792.964  	64.975  	-1	1	1
109	3	115.478  	769.576  	77.8684  	-1	1	1
110	3	138.669  	749.313  	80.7524  	-1	1	1
111	3	154.522  	726.505  	68.4749  	-1	1	1
112	3	175.273  	705.565  	66.1867  	-1	1	1
113	3	202.41  	694.419  	73.8145  	-1	1	1
114	3	230.712  	700.967  	83.3968  	-1	1	1
115	3	244.724  	726.35  	76.9922  	-1	1	1
116	3	243.216  	746.859  	53.8477  	-1	1	1
117	3	242.737  	727.265  	30.9436  	-1	1	1
118	3	235.612  	701.313  	18.5542  	-1	1	1
119	3	216.509  	680.613  	30.9303  	-1	1	1
120	3	206.415  	658.497  	49.3428  	-1	1	1
121	3	199.472  	641.923  	74.1065  	-1	1	1
122	3	203.707  	628.594  	102.04  	-1	1	1
123	3	221.002  	617.611  	126.301  	-1	1	1
124	3	249.551  	614.161  	136.951  	-1	1	1
125	3	276.686  	600.651  	137.847  	-1	1	1
126	3	302.82  	584.413  	134.19  	-1	1	1
127	3	323.097  	570.472  	151.503  	-1	1	1
128	3	324.624  	547.578  	131.879  	-1	1	1
129	3	329.346  	531.978  	105.667  	-1	1	1
130	3	335.083  	508.096  	87.8045  	-1	1	1
131	3	315.508  	487.432  	102.115  	-1	1	1
132	3	287.787  	488.866  	116.369  	-1	1	1
133	3	263.373  	497.692  	132.438  	-1	1	1
134	3	258.727  	526.074  	141.193  	-1	1	1
135	3	263.01  	554.135  	128.825  	-1	1	1
136	3	262.472  	543.754  	100.799  	-1	1	1
137	3	247.17  	525.537  	82.9588  	-1	1	1
138	3	233.755  	547.443  	68.2982  	-1	1	1
139	3	216.585  	572.421  	60.8898  	-1	1	1
140	3	204.605  	598.315  	49.8141  	-1	1	1
141	3	198.849  	615.813  	25.2788  	-1	1	1
142	3	203.19  	589.636  	9.29596  	-1	1	1
143	3	214.037  	560.467  	9.46069  	-1	1	1
144	3	206.234  	529.381  	7.47149  	-1	1	1
145	3	207.33  	501.836  	18.7555  	-1	1	1
146	3	208.579  	483.103  	44.1736  	-1	1	1
147	3	216.042  	477.165  	73.6355  	-1	1	1
148	3	224.191  	475.18  	104.036  	-1	1	1
149	3	225.616  	471.524  	134.552  	-1	1	1
150	3	238.623  	477.212  	161.894  	-1	1	1
151	3	250.761  	483.459  	188.67  	-1	1	1
152	3	249.338  	494.966  	216.333  	-1	1	1
153	3	257.972  	506.886  	244.226  	-1	1	1
154	3	276.18  	509.064  	268.482  	-1	1	1
155	3	289.249  	489.283  	288.384  	-1	1	1
156	3	295.641  	460.089  	283.578  	-1	1	1
157	3	298.108  	435.361  	266.609  	-1	1	1
158	3	284.802  	415.702  	246.063  	-1	1	1
159	3	264.173  	395.382  	249.386  	-1	1	1
160	3	254.682  	368.292  	260.713  	-1	1	1
161	3	261.437  	347.028  	282.592  	-1	1	1
162	3	268.349  	326.776  	307.194  	-1	1	1
163	3	265.813  	325.599  	337.717  	-1	1	1
164	3	246.656  	325.324  	363.115  	-1	1	1
165	3	216.798  	329.553  	365.443  	-1	1	1
166	3	199.495  	329.873  	339.676  	-1	1	1
167	3	186.986  	320.093  	313.386  	-1	1	1
168	3	177.177  	322.728  	284.882  	-1	1	1
169	3	168.078  	320.084  	256.3  	-1	1	1
170	3	168.045  	305.655  	229.142  	-1	1	1
171	3	187.465  	294.884  	206.538  	-1	1	1
172	3	214.631  	308.035  	204.08  	-1	1	1
173	3	238.687  	316.624  	187.728  	-1	1	1
174	3	261.881  	318.153  	167.822  	-1	1	1
175	3	270.441  	295.591  	148.595  	-1	1	1
176	3	267.89  	265.158  	146.714  	-1	1	1
177	3	258.828  	246.791  	169.873  	-1	1	1
178	3	260.325  	259.727  	197.867  	-1	1	1
179	3	259.783  	230.844  	207.391  	-1	1	1
180	3	256.445  	215.263  	233.59  	-1	1	1
181	3	251.597  	213.785  	262.777  	-1	1	1
182	3	242.394  	211.306  	291.008  	-1	1	1
183	3	222.089  	205.808  	312.109  	-1	1	1
184	3	219.411  	225.266  	337.379  	-1	1	1
185	3	220.447  	246.989  	358.861  	-1	1	1
186	3	247.472  	242.723  	374.22  	-1	1	1
187	3	275.692  	231.379  	371.392  	-1	1	1
188	3	271.547  	210.922  	393.988  	-1	1	1
189	3	253.193  	202.868  	416.726  	-1	1	1
190	3	253.022  	173.696  	410.672  	-1	1	1
191	3	262.921  	156.348  	386.326  	-1	1	1
192	3	290.943  	151.468  	375.152  	-1	1	1
193	3	302.592  	179.242  	381.726  	-1	1	1
194	3	315.849  	200.616  	365.486  	-1	1	1
195	3	331.963  	202.204  	341.128  	-1	1	1
196	3	333.373  	173.591  	332.964  	-1	1	1
197	3	335.48  	144.013  	342.575  	-1	1	1
198	3	331.757  	120.178  	361.67  	-1	1	1
199	3	317.002  	111.228  	384.866  	-1	1	1
200	3	309.239  	123.453  	410.615  	-1	1	1
201	3	299.59  	137.966  	435.159  	-1	1	1
202	3	290.28  	149.193  	462.036  	-1	1	1
203	3	280.796  	168.779  	483.489  	-1	1	1
204	3	273.437  	189.462  	505.252  	-1	1	1
205	3	260.014  	215.372  	499.883  	-1	1	1
206	3	247.733  	243.143  	495.253  	-1	1	1
207	3	240.167  	235.989  	523.681  	-1	1	1
208	3	232.771  	234.154  	552.987  	-1	1	1
209	3	229.635  	239.348  	583.009  	-1	1	1
210	3	228.577  	259.276  	606.222  	-1	1	1
211	3	243.417  	279.96  	623.061  	-1	1	1
212	3	258.045  	299.097  	643.507  	-1	1	1
213	3	287.661  	299.215  	651.133  	-1	1	1
214	3	314.648  	302.202  	636.415  	-1	1	1
215	3	329.525  	307.699  	609.094  	-1	1	1
216	3	340.726  	316.187  	582.304  	-1	1	1
217	3	347.311  	333.059  	558.782  	-1	1	1
218	3	343.006  	345.421  	530.431  	-1	1	1
219	3	338.913  	351.799  	499.7  	-1	1	1
220	3	318.437  	346.417  	477.289  	-1	1	1
221	3	313.836  	317.182  	489.98  	-1	1	1
222	3	314.867  	303.051  	516.268  	-1	1	1
223	3	308.763  	301.93  	546.744  	-1	1	1
224	3	302.009  	302.187  	575.661  	-1	1	1
225	3	293.311  	310.116  	603.057  	-1	1	1
226	3	289.053  	327.278  	627.86  	-1	1	1
227	3	279.327  	354.766  	624.856  	-1	1	1
228	3	272.189  	383.423  	614.548  	-1	1	1
229	3	263.405  	402.962  	590.421  	-1	1	1
230	3	261.678  	417.266  	563.695  	-1	1	1
231	3	251.775  	434.321  	536.626  	-1	1	1
232	3	225.165  	438.455  	520.475  	-1	1	1
233	3	199.398  	438.828  	502.767  	-1	1	1
234	3	184.636  	414.8  	492.945  	-1	1	1
235	3	179.082  	396.148  	516.52  	-1	1	1
236	3	171.108  	390.277  	546.545  	-1	1	1
237	3	163.524  	406.299  	572.204  	-1	1	1
238	3	151.971  	431.675  	586.047  	-1	1	1
239	3	146.407  	437.106  	555.883  	-1	1	1
240	3	144.403  	437.59  	524.887  	-1	1	1
241	3	129.401  	443.939  	499.041  	-1	1	1
242	3	109.844  	440.735  	475.479  	-1	1	1
243	3	95.1012  	458.3  	456.446  	-1	1	1
244	3	87.2984  	488.612  	454.687  	-1	1	1
245	3	62.7482  	492.726  	437.852  	-1	1	1
246	3	63.51  	521.235  	448.07  	-1	1	1
247	3	65.7177  	546.727  	464.239  	-1	1	1
248	3	96.1398  	548.981  	470.84  	-1	1	1
249	3	122.642  	553.062  	485.901  	-1	1	1
250	3	133.56  	545.909  	513.39  	-1	1	1
251	3	124.322  	539.33  	541.563  	-1	1	1
252	3	104.519  	539.692  	565.872  	-1	1	1
253	3	84.7893  	543.515  	589.6  	-1	1	1
254	3	65.3172  	547.391  	611.679  	-1	1	1
255	3	57.8232  	523.783  	630.861  	-1	1	1
256	3	51.8706  	493.06  	631.927  	-1	1	1
257	3	65.2955  	474.563  	611.38  	-1	1	1
258	3	67.7762  	458.176  	586.003  	-1	1	1
259	3	67.2943  	479.985  	566.247  	-1	1	1
260	3	50.8735  	502.489  	552.806  	-1	1	1
261	3	48.7385  	527.388  	536.884  	-1	1	1
262	3	36.8333  	552.283  	524.57  	-1	1	1
263	3	49.4833  	573.107  	504.628  	-1	1	1
264	3	67.099  	585.86  	481.726  	-1	1	1
265	3	91.2114  	600.248  	471.329  	-1	1	1
266	3	112.928  	612.448  	453.747  	-1	1	1
267	3	142.545  	608.4  	451.553  	-1	1	1
268	3	172.146  	603.732  	454.913  	-1	1	1
269	3	199.207  	599.86  	467.942  	-1	1	1
270	3	217.293  	576.028  	475.141  	-1	1	1
271	3	240.929  	557.479  	480.007  	-1	1	1
272	3	265.043  	544.392  	494.506  	-1	1	1
273	3	287.189  	523.348  	490.997  	-1	1	1
274	3	285.189  	494.584  	479.224  	-1	1	1
275	3	275.377  	465.915  	473.784  	-1	1	1
276	3	282.81  	440.079  	487.982  	-1	1	1
277	3	306.784  	449.026  	472.777  	-1	1	1
278	3	328.458  	453.72  	449.256  	-1	1	1
279	3	345.181  	428.153  	449.403  	-1	1	1
280	3	351.287  	402.535  	466.578  	-1	1	1
281	3	356.911  	382.785  	490.447  	-1	1	1
282	3	361.948  	388.509  	520.267  	-1	1	1
283	3	376.545  	398.347  	544.69  	-1	1	1
284	3	404.66  	404.711  	554.816  	-1	1	1
285	3	424.452  	412.255  	534.351  	-1	1	1
286	3	439.881  	426.226  	512.808  	-1	1	1
287	3	448.806  	441.351  	488.889  	-1	1	1
288	3	456.068  	465.706  	472.169  	-1	1	1
289	3	451.376  	485.851  	450.281  	-1	1	1
290	3	444.665  	498.893  	422.352  	-1	1	1
291	3	474.822  	503.73  	429.638  	-1	1	1
292	3	502.033  	505.63  	418.316  	-1	1	1
293	3	520.096  	506.388  	393.574  	-1	1	1
294	3	523.922  	504.37  	364.231  	-1	1	1
295	3	519.179  	492.12  	336.405  	-1	1	1
296	3	521.811  	469.819  	314.455  	-1	1	1
297	3	516.038  	441.083  	308.831  	-1	1	1
298	3	492.394  	424.047  	299.948  	-1	1	1
299	3	465.161  	411.028  	303.381  	-1	1	1
300	3	436.774  	398.626  	299.456  	-1	1	1
301	3	407.53  	407.99  	308.185  	-1	1	1
302	3	382.88  	415.078  	323.405  	-1	1	1
303	3	362.039  	429.688  	338.961  	-1	1	1
304	3	361.167  	429.62  	369.896  	-1	1	1
305	3	384.325  	413.476  	382.095  	-1	1	1
306	3	412.464  	400.849  	381.379  	-1	1	1
307	3	416.597  	371.681  	370.419  	-1	1	1
308	3	406.803  	347.236  	354.355  	-1	1	1
309	3	387.565  	350.398  	378.493  	-1	1	1
310	3	401.316  	362.75  	404.298  	-1	1	1
311	3	428.145  	372.506  	416.308  	-1	1	1
312	3	452.658  	388.14  	422.618  	-1	1	1
313	3	477.628  	404.094  	431.218  	-1	1	1
314	3	503.414  	422.848  	429.528  	-1	1	1
315	3	528.25  	419.57  	411.351  	-1	1	1
316	3	511.286  	441.368  	401.327  	-1	1	1
317	3	485.985  	455.793  	411.684  	-1	1	1
318	3	479.219  	454.145  	441.482  	-1	1	1
319	3	480.71  	432.335  	461.341  	-1	1	1
320	3	483.227  	402.031  	464.012  	-1	1	1
321	3	484.366  	372.43  	458.161  	-1	1	1
322	3	485.108  	342.756  	450.795  	-1	1	1
323	3	484.176  	314.709  	442.098  	-1	1	1
324	3	465.519  	290.876  	436.74  	-1	1	1
325	3	450.743  	263.675  	437.703  	-1	1	1
326	3	435.867  	238.359  	449.199  	-1	1	1
327	3	429.505  	211.486  	460.856  	-1	1	1
328	3	408.165  	194.157  	474.672  	-1	1	1
329	3	388.683  	179.54  	493.378  	-1	1	1
330	3	369.061  	166.089  	513.424  	-1	1	1
331	3	360.135  	158.541  	542.3  	-1	1	1
332	3	375.775  	159.556  	569.239  	-1	1	1
333	3	393.79  	173.488  	589.951  	-1	1	1
334	3	396.67  	190.782  	614.964  	-1	1	1
335	3	379.024  	190.991  	640.141  	-1	1	1
336	3	356.767  	196.365  	659.176  	-1	1	1
337	3	344.883  	169.909  	648.739  	-1	1	1
338	3	341.265  	141.513  	638.93  	-1	1	1
339	3	326.449  	114.177  	636.845  	-1	1	1
340	3	308.238  	109.772  	661.008  	-1	1	1
341	3	280.372  	118.042  	673.493  	-1	1	1
342	3	261.54  	133.082  	692.56  	-1	1	1
343	3	237.753  	150.067  	700.748  	-1	1	1
344	3	209.475  	151.675  	712.053  	-1	1	1
345	3	179.228  	148.448  	722.016  	-1	1	1
346	3	151.158  	150.235  	710.076  	-1	1	1
347	3	134.971  	161.259  	684.41  	-1	1	1
348	3	133.688  	186.232  	666.961  	-1	1	1
349	3	144.454  	200.724  	643.147  	-1	1	1
350	3	115.621  	195.158  	631.696  	-1	1	1
351	3	87.582  	188.139  	623.832  	-1	1	1
352	3	56.423  	192.477  	621.598  	-1	1	1
353	3	26.3225  	192.486  	619.929  	-1	1	1
354	3	-0.761458  	203.435  	627.396  	-1	1	1
355	3	-24.6349  	220.661  	637.326  	-1	1	1
356	3	-38.2379  	246.055  	647.848  	-1	1	1
357	3	-50.9932  	275.168  	643.542  	-1	1	1
358	3	-59.3031  	304.568  	645.591  	-1	1	1
359	3	-65.8187  	333.837  	653.413  	-1	1	1
360	3	-69.9367  	362.811  	659.265  	-1	1	1
361	3	-81.8961  	388.661  	671.233  	-1	1	1
362	3	-96.7644  	403.728  	692.204  	-1	1	1
363	3	-105.851  	405.984  	721.281  	-1	1	1
364	3	-125.768  	404.111  	743.437  	-1	1	1
365	3	-140.225  	403.152  	770.994  	-1	1	1
366	3	-146.99  	377.233  	785.497  	-1	1	1
367	3	-160.306  	351.866  	777.018  	-1	1	1
368	3	-166.891  	325.568  	763.162  	-1	1	1
369	3	-163.562  	307.528  	737.867  	-1	1	1
370	3	-160.003  	319.185  	708.493  	-1	1	1
371	3	-157.085  	333.627  	681.327  	-1	1	1
372	3	-171.879  	313.848  	664.918  	-1	1	1
373	3	-191.606  	296.751  	649.857  	-1	1	1
374	3	-201.991  	282.11  	624.748  	-1	1	1
375	3	-204.091  	254.811  	609.667  	-1	1	1
376	3	-216.906  	227.544  	601.639  	-1	1	1
377	3	-224.461  	197.88  	603.972  	-1	1	1
378	3	-242.008  	177.891  	620.018  	-1	1	1
379	3	-245.019  	175.036  	650.718  	-1	1	1
380	3	-236.579  	173.82  	679.939  	-1	1	1
381	3	-229.247  	180.31  	709.05  	-1	1	1
382	3	-243.417  	184  	735.409  	-1	1	1
383	3	-269.84  	169.478  	737.483  	-1	1	1
384	3	-285.009  	154.656  	714.112  	-1	1	1
385	3	-285.143  	152.766  	684.135  	-1	1	1
386	3	-294.418  	128.319  	668.347  	-1	1	1
387	3	-304.433  	99.4103  	671.401  	-1	1	1
388	3	-299.247  	73.2804  	686.499  	-1	1	1
389	3	-282.643  	51.9017  	700.626  	-1	1	1
390	3	-265.65  	41.5199  	723.982  	-1	1	1
391	3	-251.499  	47.4809  	750.803  	-1	1	1
392	3	-223.598  	59.6204  	754.771  	-1	1	1
393	3	-197.448  	63.9754  	739.401  	-1	1	1
394	3	-193.544  	49.2531  	713.541  	-1	1	1
395	3	-216.855  	64.9406  	704.109  	-1	1	1
396	3	-236.377  	89.4948  	699.765  	-1	1	1
397	3	-250.549  	116.949  	694.309  	-1	1	1
398	3	-246.193  	135.121  	669.091  	-1	1	1
399	3	-244.757  	133.861  	637.528  	-1	1	1
400	3	-226.633  	141.974  	615.525  	-1	1	1
401	3	-201.859  	153.422  	600.245  	-1	1	1
402	3	-182.04  	169.111  	582.185  	-1	1	1
403	3	-180.034  	192.808  	562.665  	-1	1	1
404	3	-205.959  	209.062  	559.072  	-1	1	1
405	3	-235.398  	218.294  	557.158  	-1	1	1
406	3	-260.81  	206.663  	544.879  	-1	1	1
407	3	-249.856  	180.633  	557.051  	-1	1	1
408	3	-245.363  	150.819  	554.004  	-1	1	1
409	3	-237.636  	124.793  	537.3  	-1	1	1
410	3	-229.65  	109.574  	510.391  	-1	1	1
411	3	-221.435  	97.5014  	483.844  	-1	1	1
412	3	-219.555  	85.9177  	455.827  	-1	1	1
413	3	-211.208  	61.8892  	439.661  	-1	1	1
414	3	-188.918  	46.8416  	451.002  	-1	1	1
415	3	-168.734  	35.7172  	468.147  	-1	1	1
416	3	-155.869  	7.827  	468.168  	-1	1	1
417	3	-142.393  	-17.036  	458.904  	-1	1	1
418	3	-126.897  	5.9458  	445.334  	-1	1	1
419	3	-128.038  	33.0193  	429.351  	-1	1	1
420	3	-142.678  	59.4396  	434.749  	-1	1	1
421	3	-159.773  	69.0761  	458.218  	-1	1	1
422	3	-169.694  	75.7436  	486.306  	-1	1	1
423	3	-193.918  	71.514  	503.883  	-1	1	1
424	3	-212.6  	61.3583  	525.463  	-1	1	1
425	3	-230.157  	42.3206  	541.762  	-1	1	1
426	3	-255.811  	32.4657  	554.648  	-1	1	1
427	3	-270.924  	20.6797  	579.702  	-1	1	1
428	3	-270.787  	9.5774  	608.127  	-1	1	1
429	3	-275.104  	19.0754  	637.557  	-1	1	1
430	3	-254.332  	38.0396  	649.879  	-1	1	1
431	3	-230.175  	54.4716  	660.732  	-1	1	1
432	3	-200.627  	63.8934  	657.508  	-1	1	1
433	3	-177.528  	53.7922  	640.57  	-1	1	1
434	3	-169.471  	33.006  	620.034  	-1	1	1
435	3	-173.854  	3.29898  	628.209  	-1	1	1
436	3	-173.801  	-25.9111  	639.357  	-1	1	1
437	3	-185.925  	-44.0339  	660.06  	-1	1	1
438	3	-198.489  	-59.0697  	683.883  	-1	1	1
439	3	-215.311  	-54.4317  	709.144  	-1	1	1
440	3	-221.224  	-40.8443  	736.379  	-1	1	1
441	3	-232.178  	-12.9699  	742.268  	-1	1	1
442	3	-229.468  	16.5682  	738.298  	-1	1	1
443	3	-198.369  	21.8444  	744.407  	-1	1	1
444	3	-168.892  	16.3245  	748.574  	-1	1	1
445	3	-139.663  	8.11982  	748.893  	-1	1	1
446	3	-114.189  	16.619  	735  	-1	1	1
447	3	-114.752  	27.3909  	706.222  	-1	1	1
448	3	-105.318  	25.7245  	677.503  	-1	1	1
449	3	-94.9554  	-0.153091  	664.841  	-1	1	1
450	3	-103.947  	-28.0741  	662.896  	-1	1	1
451	3	-111.786  	-55.7407  	654.03  	-1	1	1
452	3	-135.858  	-70.4985  	645.999  	-1	1	1
453	3	-158.063  	-87.7546  	634.249  	-1	1	1
454	3	-147.714  	-112.072  	618.337  	-1	1	1
455	3	-125.224  	-131.297  	625.199  	-1	1	1
456	3	-107.145  	-153.414  	632.685  	-1	1	1
457	3	-84.5776  	-171.893  	641.352  	-1	1	1
458	3	-63.1516  	-191.34  	650.272  	-1	1	1
459	3	-46.8554  	-201.514  	626.339  	-1	1	1
460	3	-35.2588  	-208.924  	598.557  	-1	1	1
461	3	-13.6016  	-213.234  	578.608  	-1	1	1
462	3	9.42027  	-216.816  	598.925  	-1	1	1
463	3	17.8219  	-194.436  	616.751  	-1	1	1
464	3	0.457461  	-173.262  	603.469  	-1	1	1
465	3	-18.0155  	-149.743  	605.011  	-1	1	1
466	3	-45.0957  	-138.47  	602.872  	-1	1	1
467	3	-72.9419  	-129.06  	602.744  	-1	1	1
468	3	-68.439  	-119.385  	573.887  	-1	1	1
469	3	-57.2797  	-106.946  	547.441  	-1	1	1
470	3	-56.481  	-110.219  	516.162  	-1	1	1
471	3	-56.0847  	-123.264  	488.191  	-1	1	1
472	3	-47.6797  	-129.411  	459.055  	-1	1	1
473	3	-54.3499  	-142.732  	431.994  	-1	1	1
474	3	-49.9481  	-171.737  	424.133  	-1	1	1
475	3	-54.1246  	-202.407  	423.568  	-1	1	1
476	3	-39.118  	-227.542  	434.056  	-1	1	1
477	3	-22.2712  	-251.853  	442.878  	-1	1	1
478	3	-14.068  	-278.504  	454.259  	-1	1	1
479	3	12.3981  	-281.232  	471.018  	-1	1	1
480	3	29.2025  	-258.345  	463.282  	-1	1	1
481	3	44.8788  	-241.452  	442.944  	-1	1	1
482	3	47.7768  	-213.237  	434.944  	-1	1	1
483	3	63.3734  	-227.676  	412.086  	-1	1	1
484	3	71.4552  	-236.113  	383.767  	-1	1	1
485	3	77.4855  	-251.911  	356.752  	-1	1	1
486	3	88.2244  	-248.309  	326.863  	-1	1	1
487	3	86.8718  	-246.971  	296.403  	-1	1	1
488	3	59.1582  	-236.41  	289.804  	-1	1	1
489	3	36.7834  	-219.538  	297.243  	-1	1	1
490	3	11.7058  	-204.022  	304.915  	-1	1	1
491	3	20.9732  	-188.94  	278.264  	-1	1	1
492	3	32.6304  	-179.517  	252.071  	-1	1	1
493	3	51.5436  	-166.557  	232.548  	-1	1	1
494	3	58.7821  	-141.01  	218.156  	-1	1	1
495	3	62.3477  	-119.807  	197.681  	-1	1	1
496	3	42.8195  	-107.552  	176.587  	-1	1	1
497	3	17.8548  	-103.464  	158.494  	-1	1	1
498	3	-9.69046  	-100.703  	143.443  	-1	1	1
499	3	-31.8724  	-79.6099  	138.481  	-1	1	1
500	3	-42.3833  	-51.6152  	148.295  	-1	1	1
501	3	-44.2979  	-21.9538  	158.203  	-1	1	1
502	3	-28.3745  	4.04704  	161.94  	-1	1	1
503	3	-13.4036  	29.5354  	169.116  	-1	1	1
504	3	14.0353  	43.0808  	177.019  	-1	1	1
505	3	38.056  	23.4407  	173.683  	-1	1	1
506	3	51.5938  	-2.36714  	181.191  	-1	1	1
507	3	73.9783  	-18.6699  	194.106  	-1	1	1
508	3	67.3586  	-37.7598  	216.745  	-1	1	1
509	3	50.2828  	-48.1718  	240.091  	-1	1	1
510	3	47.0665  	-33.2693  	266.429  	-1	1	1
511	3	41.1145  	-11.1062  	285.308  	-1	1	1
512	3	21.1976  	-23.0109  	304.763  	-1	1	1
513	3	11.9749  	-44.1036  	284.392  	-1	1	1
514	3	-2.57424  	-68.739  	271.63  	-1	1	1
515	3	-12.3226  	-60.7084  	299.206  	-1	1	1
516	3	-6.99557  	-44.7803  	325.725  	-1	1	1
517	3	9.9089  	-39.9928  	351.152  	-1	1	1
518	3	33.4099  	-36.1195  	372.329  	-1	1	1
519	3	46.7845  	-39.4183  	399.198  	-1	1	1
520	3	43.3396  	-42.9329  	429.599  	-1	1	1
521	3	25.1138  	-26.6704  	448.645  	-1	1	1
522	3	-0.776138  	-20.475  	460.201  	-1	1	1
523	3	-25.1673  	-1.86106  	464.274  	-1	1	1
524	3	-50.3373  	11.7167  	456.56  	-1	1	1
525	3	-74.9961  	26.4309  	447.864  	-1	1	1
526	3	-92.9447  	50.2787  	443.238  	-1	1	1
527	3	-85.9599  	80.1128  	450.09  	-1	1	1
528	3	-85.4942  	95.9993  	476.093  	-1	1	1
529	3	-87.9688  	93.6987  	506.548  	-1	1	1
530	3	-107.641  	114.739  	496.784  	-1	1	1
531	3	-114.553  	122.401  	469.41  	-1	1	1
532	3	-126.122  	135.216  	443.535  	-1	1	1
533	3	-133.388  	162.945  	433.221  	-1	1	1
534	3	-120.794  	189.91  	425.332  	-1	1	1
535	3	-100.487  	199.646  	404.432  	-1	1	1
536	3	-76.2479  	200.196  	385.774  	-1	1	1
537	3	-97.2683  	200.005  	363.628  	-1	1	1
538	3	-79.3886  	197.15  	338.392  	-1	1	1
539	3	-78.1746  	185.627  	310.118  	-1	1	1
540	3	-101.712  	176.209  	293.335  	-1	1	1
541	3	-128.494  	170.604  	280.949  	-1	1	1
542	3	-151.091  	163.367  	298.73  	-1	1	1
543	3	-134.527  	145.551  	318.701  	-1	1	1
544	3	-105.602  	138.3  	321.3  	-1	1	1
545	3	-77.8248  	128.103  	314.049  	-1	1	1
546	3	-48.0731  	134.086  	308.468  	-1	1	1
547	3	-22.6345  	151.679  	305.143  	-1	1	1
548	3	-2.7483  	173.434  	298.02  	-1	1	1
549	3	12.1795  	200.647  	297.921  	-1	1	1
550	3	25.8434  	227.398  	307.619  	-1	1	1
551	3	36.4438  	219.658  	280.463  	-1	1	1
552	3	46.5943  	197.854  	261.389  	-1	1	1
553	3	63.1464  	178.604  	244.701  	-1	1	1
554	3	83.803  	155.451  	245.833  	-1	1	1
555	3	103.115  	131.541  	242.742  	-1	1	1
556	3	125.288  	110.637  	245.391  	-1	1	1
557	3	144.891  	107.731  	223.191  	-1	1	1
558	3	156.486  	129.823  	204.455  	-1	1	1
559	3	155.296  	159.546  	213.884  	-1	1	1
560	3	155.716  	186.753  	202.031  	-1	1	1
561	3	140.875  	189.583  	175.916  	-1	1	1
562	3	121.619  	182.701  	152.747  	-1	1	1
563	3	95.2817  	169.234  	159.918  	-1	1	1
564	3	89.8834  	148.183  	181.945  	-1	1	1
565	3	94.7623  	121.574  	195.82  	-1	1	1
566	3	96.9741  	93.2686  	207.605  	-1	1	1
567	3	102.588  	66.7719  	221.62  	-1	1	1
568	3	114.521  	43.456  	236.016  	-1	1	1
569	3	134.53  	48.6235  	212.25  	-1	1	1
570	3	139.857  	58.1896  	183.926  	-1	1	1
571	3	170.288  	58.8713  	182.174  	-1	1	1
572	3	186.232  	46.0756  	206.39  	-1	1	1
573	3	189.793  	30.3044  	232.877  	-1	1	1
574	3	174.276  	9.60634  	216.684  	-1	1	1
575	3	172.907  	16.9066  	186.302  	-1	1	1
576	3	191.305  	31.3086  	164.953  	-1	1	1
577	3	211.286  	43.2158  	145.498  	-1	1	1
578	3	229.386  	47.9179  	118.078  	-1	1	1
579	3	247.344  	48.4126  	93.978  	-1	1	1
580	3	258.579  	38.9294  	66.933  	-1	1	1
581	3	283.829  	24.2042  	53.7744  	-1	1	1
582	3	293.808  	1.90212  	72.2933  	-1	1	1
583	3	298.211  	-10.5005  	101.056  	-1	1	1
584	3	285.905  	-15.3307  	129.038  	-1	1	1
585	3	269.319  	-0.693514  	149.163  	-1	1	1
586	3	276.938  	25.0933  	135.369  	-1	1	1
587	3	303.655  	40.683  	135.281  	-1	1	1
588	3	331.551  	35.4381  	127.991  	-1	1	1
589	3	352.621  	26.7528  	109.362  	-1	1	1
590	3	338.466  	-0.104032  	104.656  	-1	1	1
591	3	324.992  	-15.7779  	126.387  	-1	1	1
592	3	327.753  	-33.9056  	151.174  	-1	1	1
593	3	330.418  	-44.7261  	180.879  	-1	1	1
594	3	336.004  	-49.709  	210.371  	-1	1	1
595	3	335.126  	-40.9654  	239.127  	-1	1	1
596	3	327.129  	-19.9372  	259.711  	-1	1	1
597	3	305.66  	1.023  	262.499  	-1	1	1
598	3	274.608  	2.93934  	258.694  	-1	1	1
599	3	248.929  	10.0422  	271.692  	-1	1	1
600	3	227.808  	8.95183  	294.43  	-1	1	1
601	3	217.703  	-9.32008  	317.932  	-1	1	1
602	3	207.665  	-32.8058  	334.386  	-1	1	1
603	3	210.992  	-56.8026  	350.374  	-1	1	1
604	3	216.162  	-77.7403  	371.817  	-1	1	1
605	3	239.164  	-91.4798  	385.941  	-1	1	1
606	3	265.759  	-103.05  	378.387  	-1	1	1
607	3	287.564  	-116.067  	359.422  	-1	1	1
608	3	304.798  	-123.255  	335.59  	-1	1	1
609	3	319.186  	-127.826  	308.869  	-1	1	1
610	3	333.515  	-140.701  	284.969  	-1	1	1
611	3	328.501  	-142.948  	254.699  	-1	1	1
612	3	307.182  	-142.128  	232.866  	-1	1	1
613	3	277.786  	-131.346  	228.623  	-1	1	1
614	3	254.379  	-112.514  	228.799  	-1	1	1
615	3	232.879  	-92.9323  	234.166  	-1	1	1
616	3	209.266  	-75.1932  	239.972  	-1	1	1
617	3	198.947  	-49.5824  	252.57  	-1	1	1
618	3	203.253  	-33.4474  	277.463  	-1	1	1
619	3	222.578  	-46.114  	298.05  	-1	1	1
620	3	240.064  	-64.2588  	282.035  	-1	1	1
621	3	257.379  	-85.7309  	268.867  	-1	1	1
622	3	286.503  	-96.3182  	266.411  	-1	1	1
623	3	315.715  	-104.236  	268.145  	-1	1	1
624	3	342.836  	-91.2028  	270.623  	-1	1	1
625	3	360.299  	-68.3449  	279.503  	-1	1	1
626	3	377.05  	-45.5834  	294.004  	-1	1	1
627	3	378.945  	-23.113  	314  	-1	1	1
628	3	375.262  	1.07066  	332.904  	-1	1	1
629	3	373.663  	30.5548  	345.297  	-1	1	1
630	3	377.211  	58.237  	357.712  	-1	1	1
631	3	400.313  	64.1036  	339.825  	-1	1	1
632	3	415.768  	56.0504  	314.207  	-1	1	1
633	3	409.555  	53.6486  	285.149  	-1	1	1
634	3	405.525  	53.8769  	254.261  	-1	1	1
635	3	407.366  	45.8228  	225.273  	-1	1	1
636	3	436.259  	48.9626  	232.612  	-1	1	1
637	3	463.987  	61.1446  	235.208  	-1	1	1
638	3	486.429  	69.4651  	216.165  	-1	1	1
639	3	490.373  	97.6491  	204.36  	-1	1	1
640	3	482.857  	126.867  	202.1  	-1	1	1
641	3	474.007  	156.985  	201.757  	-1	1	1
642	3	461.268  	184.324  	207.743  	-1	1	1
643	3	445.746  	209.707  	204.861  	-1	1	1
644	3	458.008  	229.29  	184.336  	-1	1	1
645	3	477.412  	225.516  	162.233  	-1	1	1
646	3	496.086  	229.118  	136.338  	-1	1	1
647	3	502.74  	245.905  	111.405  	-1	1	1
648	3	522.931  	250.815  	89.5807  	-1	1	1
649	3	537.392  	266.027  	67.99  	-1	1	1
650	3	539.864  	293.023  	52.6288  	-1	1	1
651	3	515.012  	305.878  	38.7926  	-1	1	1
652	3	491.45  	309.595  	20.2835  	-1	1	1
653	3	484.113  	315.403  	-9.29217  	-1	1	1
654	3	474.744  	323.884  	-37.2546  	-1	1	1
655	3	481.535  	336.45  	-65.4334  	-1	1	1
656	3	486.097  	345.037  	-95.2203  	-1	1	1
657	3	479.805  	351.221  	-124.862  	-1	1	1
658	3	467.877  	345.898  	-153.212  	-1	1	1
659	3	458.365  	348.948  	-182.395  	-1	1	1
660	3	439.372  	356.891  	-204.966  	-1	1	1
661	3	411.748  	346.336  	-210.402  	-1	1	1
662	3	382.513  	340.873  	-214.208  	-1	1	1
663	3	351.596  	334.167  	-212.958  	-1	1	1
664	3	363.782  	305.777  	-218.074  	-1	1	1
665	3	382.245  	281.691  	-221.768  	-1	1	1
666	3	400.22  	257.03  	-226.151  	-1	1	1
667	3	413.893  	232.019  	-238.042  	-1	1	1
668	3	428.874  	216.882  	-260.109  	-1	1	1
669	3	449.647  	219.834  	-280.873  	-1	1	1
670	3	422.072  	214.782  	-295.772  	-1	1	1
671	3	398.326  	211.77  	-315.272  	-1	1	1
672	3	372.409  	204.777  	-328.2  	-1	1	1
673	3	374.792  	174.711  	-327.125  	-1	1	1
674	3	371.874  	145.295  	-319.648  	-1	1	1
675	3	361.044  	116.931  	-317.73  	-1	1	1
676	3	345.411  	100.705  	-338.451  	-1	1	1
677	3	317.796  	93.8281  	-350.274  	-1	1	1
678	3	303.83  	70.8882  	-364.042  	-1	1	1
679	3	319.516  	49.0801  	-349.311  	-1	1	1
680	3	336.274  	52.5566  	-322.634  	-1	1	1
681	3	360.228  	68.8003  	-312.168  	-1	1	1
682	3	377.253  	83.1501  	-333.623  	-1	1	1
683	3	393.113  	97.3568  	-354.841  	-1	1	1
684	3	407.071  	107.787  	-380.011  	-1	1	1
685	3	422.45  	110.905  	-405.838  	-1	1	1
686	3	433.214  	90.6072  	-425.208  	-1	1	1
687	3	447.562  	62.2251  	-422.627  	-1	1	1
688	3	459.723  	34.4451  	-430.455  	-1	1	1