# LAMMPS data file for replicating chromosomes formed of rigid body monomers

7612		atoms
8		atom types
5050		ellipsoids
5000		bonds
2		bond types
10000		angles
4		angle types


-1140	1140	xlo xhi
-1140	1140	ylo yhi
-1140	1140	zlo zhi

Atoms # atom-ID atom-type x y z molecule-ID ellipsoid-flag density

1	5	154.228  	700.463  	-370.299  	-1	1	1
2	3	175.782  	707.117  	-349.948  	-1	1	1
3	3	195.098  	722.608  	-332.051  	-1	1	1
4	3	206.133  	744.614  	-314.123  	-1	1	1
5	3	208.72  	766.063  	-291.745  	-1	1	1
6	3	207.752  	779.395  	-263.193  	-1	1	1
7	3	202.798  	793.963  	-237.832  	-1	1	1
8	3	190.484  	814.89  	-220.264  	-1	1	1
9	3	178.791  	825.241  	-194.49  	-1	1	1
10	3	155.459  	839.451  	-180.052  	-1	1	1
11	3	125.415  	843.947  	-177.75  	-1	1	1
12	3	93.4692  	844.464  	-183.414  	-1	1	1
13	3	63.5461  	848.029  	-181.942  	-1	1	1
14	3	40.116  	849.012  	-162.539  	-1	1	1
15	3	21.777  	855.883  	-138.853  	-1	1	1
16	3	-7.78546  	860.225  	-130.212  	-1	1	1
17	3	-36.6736  	853.825  	-123.859  	-1	1	1
18	3	-57.9821  	853.578  	-102.662  	-1	1	1
19	3	-85.2974  	849.955  	-88.9395  	-1	1	1
20	3	-113.501  	847.046  	-76.3357  	-1	1	1
21	3	-140.533  	844.855  	-62.8262  	-1	1	1
22	3	-164.741  	832.818  	-47.2614  	-1	1	1
23	3	-188.872  	831.112  	-28.1366  	-1	1	1
24	3	-200.409  	835.619  	1.80581  	-1	1	1
25	3	-204.207  	835.694  	32.2781  	-1	1	1
26	3	-197.538  	820.507  	58.7947  	-1	1	1
27	3	-194.213  	803.55  	83.8924  	-1	1	1
28	3	-175.582  	796.384  	108.354  	-1	1	1
29	3	-152.135  	784.776  	124.532  	-1	1	1
30	3	-131.597  	763.002  	119.004  	-1	1	1
31	3	-104.743  	747.344  	114.698  	-1	1	1
32	3	-84.9011  	727.349  	103.975  	-1	1	1
33	3	-75.4829  	701.658  	92.9233  	-1	1	1
34	3	-57.6758  	676.97  	91.8958  	-1	1	1
35	3	-34.1295  	656.308  	90.1243  	-1	1	1
36	3	-15.4145  	646.246  	68.0823  	-1	1	1
37	3	5.89438  	637.89  	47.5553  	-1	1	1
38	3	26.1457  	632.02  	25.7478  	-1	1	1
39	3	47.501  	632.961  	4.69565  	-1	1	1
40	3	73.2182  	634.783  	-12.1343  	-1	1	1
41	3	99.8428  	641.884  	-25.9669  	-1	1	1
42	3	128.803  	650.394  	-23.5658  	-1	1	1
43	3	155.863  	654.116  	-8.16748  	-1	1	1
44	3	177.721  	671.361  	5.08495  	-1	1	1
45	3	193.5  	690.828  	20.8855  	-1	1	1
46	3	206.55  	714.179  	36.6339  	-1	1	1
47	3	198.641  	734.49  	57.5988  	-1	1	1
48	3	185.559  	759.784  	70.1928  	-1	1	1
49	3	162.923  	776.719  	83.4401  	-1	1	1
50	3	136.469  	770.598  	96.8275  	-1	1	1
51	3	107.983  	764.687  	105.45  	-1	1	1
52	3	77.899  	763.968  	110.176  	-1	1	1
53	3	49.8263  	761.527  	122.943  	-1	1	1
54	3	26.2401  	744.014  	128.635  	-1	1	1
55	3	13.2663  	717.748  	137.337  	-1	1	1
56	3	0.59789  	690.681  	139.838  	-1	1	1
57	3	-12.7871  	662.79  	138.91  	-1	1	1
58	3	-36.062  	645.37  	128.822  	-1	1	1
59	3	-53.6149  	627.378  	111.746  	-1	1	1
60	3	-69.0151  	612.438  	89.4465  	-1	1	1
61	3	-79.2112  	605.468  	62.784  	-1	1	1
62	3	-84.7303  	595.74  	34.1401  	-1	1	1
63	3	-74.4831  	587.939  	7.80561  	-1	1	1
64	3	-63.8164  	594.849  	-18.4316  	-1	1	1
65	3	-41.8163  	601.023  	-37.7312  	-1	1	1
66	3	-29.4714  	615.181  	-64.3136  	-1	1	1
67	3	-23.6219  	630.783  	-90.1294  	-1	1	1
68	3	-20.8139  	639.621  	-119.006  	-1	1	1
69	3	-32.129  	645.827  	-146.321  	-1	1	1
70	3	-30.7825  	659.21  	-174.255  	-1	1	1
71	3	-33.5722  	681.061  	-196.473  	-1	1	1
72	3	-44.905  	707.33  	-205.725  	-1	1	1
73	3	-41.3832  	737.745  	-206.621  	-1	1	1
74	3	-29.9382  	765.161  	-200.199  	-1	1	1
75	3	-14.2441  	780.172  	-177.79  	-1	1	1
76	3	0.109762  	794.93  	-155.209  	-1	1	1
77	3	9.70439  	803.386  	-127.312  	-1	1	1
78	3	29.4568  	821.874  	-111.265  	-1	1	1
79	3	49.4087  	830.568  	-88.7231  	-1	1	1
80	3	75.1073  	826.409  	-70.5856  	-1	1	1
81	3	101.427  	824.963  	-54.961  	-1	1	1
82	3	120.636  	820.662  	-31.9437  	-1	1	1
83	3	136.362  	805.067  	-11.6829  	-1	1	1
84	3	138.62  	775.665  	-2.29546  	-1	1	1
85	3	157.394  	752.771  	-12.5543  	-1	1	1
86	3	174.675  	732.94  	-26.4062  	-1	1	1
87	3	191.822  	711.044  	-40.2176  	-1	1	1
88	3	214.616  	700.091  	-58.5423  	-1	1	1
89	3	231.863  	684.061  	-78.313  	-1	1	1
90	3	248.726  	673.374  	-101.741  	-1	1	1
91	3	258.335  	666.835  	-131.375  	-1	1	1
92	3	250.703  	666.282  	-161.452  	-1	1	1
93	3	230.596  	671.773  	-183.912  	-1	1	1
94	3	216.288  	694.905  	-197.724  	-1	1	1
95	3	199.248  	719.101  	-207.225  	-1	1	1
96	3	181.708  	742.665  	-203.623  	-1	1	1
97	3	169.851  	765.872  	-187.994  	-1	1	1
98	3	159.47  	793.301  	-176.459  	-1	1	1
99	3	154.383  	815.206  	-155.646  	-1	1	1
100	3	147.241  	825.146  	-128.244  	-1	1	1
101	3	133.603  	840.563  	-104.217  	-1	1	1
102	3	108.883  	848.6  	-86.4091  	-1	1	1
103	3	89.2602  	862.421  	-69.7699  	-1	1	1
104	3	78.4288  	862.774  	-40.5918  	-1	1	1
105	3	77.5352  	877.965  	-14.0819  	-1	1	1
106	3	90.4963  	888.888  	11.8968  	-1	1	1
107	3	103.637  	886.553  	38.7706  	-1	1	1
108	3	127.187  	880.399  	56.9127  	-1	1	1
109	3	143.463  	869.213  	81.0677  	-1	1	1
110	3	153.137  	856.736  	106.501  	-1	1	1
111	3	171.845  	849.698  	129.381  	-1	1	1
112	3	190.814  	844.676  	152.454  	-1	1	1
113	3	206.108  	823.308  	165.643  	-1	1	1
114	3	214.706  	796.625  	177.494  	-1	1	1
115	3	239.738  	780.921  	180.818  	-1	1	1
116	3	263.905  	761.796  	182.977  	-1	1	1
117	3	269.095  	734.575  	169.213  	-1	1	1
118	3	283.921  	711.46  	155.316  	-1	1	1
119	3	291.977  	694.308  	131.072  	-1	1	1
120	3	294.991  	675.709  	106.945  	-1	1	1
121	3	292.259  	663.384  	77.9978  	-1	1	1
122	3	293.272  	652.036  	49.4996  	-1	1	1
123	3	290.184  	640.552  	20.0196  	-1	1	1
124	3	288.473  	630.024  	-9.57249  	-1	1	1
125	3	274.703  	615.903  	-34.6533  	-1	1	1
126	3	263.344  	603.281  	-58.3816  	-1	1	1
127	3	258.251  	586.47  	-84.3121  	-1	1	1
128	3	261.17  	557.988  	-93.7013  	-1	1	1
129	3	262.552  	526.752  	-100.241  	-1	1	1
130	3	258.964  	496.358  	-102.153  	-1	1	1
131	3	249.461  	466.694  	-104.199  	-1	1	1
132	3	244.938  	439.436  	-90.7687  	-1	1	1
133	3	246.851  	410.199  	-82.3918  	-1	1	1
134	3	254.033  	382.43  	-70.4114  	-1	1	1
135	3	244.966  	356.369  	-57.1866  	-1	1	1
136	3	242.045  	341.022  	-29.296  	-1	1	1
137	3	233.789  	345.732  	-1.46031  	-1	1	1
138	3	224.419  	358.74  	24.8981  	-1	1	1
139	3	217.667  	383.266  	42.3148  	-1	1	1
140	3	210.696  	410.122  	54.7191  	-1	1	1
141	3	205.797  	435.491  	71.4962  	-1	1	1
142	3	196.293  	454.698  	94.482  	-1	1	1
143	3	183.754  	470.009  	117.262  	-1	1	1
144	3	190.339  	484.821  	142.785  	-1	1	1
145	3	204.414  	499.08  	165.705  	-1	1	1
146	3	224.418  	520.222  	178.156  	-1	1	1
147	3	233.758  	542.964  	195.58  	-1	1	1
148	3	245.393  	557.623  	220.126  	-1	1	1
149	3	258.319  	571.989  	243.898  	-1	1	1
150	3	266.736  	595.122  	263.029  	-1	1	1
151	3	282.571  	617.635  	277.091  	-1	1	1
152	3	305.625  	613.604  	298.026  	-1	1	1
153	3	325.212  	602.817  	317.199  	-1	1	1
154	3	342.491  	583.425  	335.571  	-1	1	1
155	3	347.654  	563.39  	359.421  	-1	1	1
156	3	339.113  	537.248  	371.59  	-1	1	1
157	3	333.429  	508.256  	374.314  	-1	1	1
158	3	333.095  	480.765  	360.47  	-1	1	1
159	3	330.516  	453.325  	344.034  	-1	1	1
160	3	323.778  	436.211  	318.906  	-1	1	1
161	3	304.242  	420.627  	300.221  	-1	1	1
162	3	279.95  	426.363  	282.854  	-1	1	1
163	3	257.397  	438.306  	265.845  	-1	1	1
164	3	241.064  	452.378  	245.289  	-1	1	1
165	3	225.996  	452.704  	219.323  	-1	1	1
166	3	223.354  	448.403  	188.205  	-1	1	1
167	3	231.575  	435.136  	161.594  	-1	1	1
168	3	226.318  	414.485  	140.018  	-1	1	1
169	3	227.354  	387.401  	125.41  	-1	1	1
170	3	227.522  	356.549  	125.072  	-1	1	1
171	3	214.987  	328.852  	121.281  	-1	1	1
172	3	205.049  	300.987  	118.674  	-1	1	1
173	3	200.411  	270.373  	115.214  	-1	1	1
174	3	192.301  	242.176  	123.786  	-1	1	1
175	3	191.5  	229.097  	151.833  	-1	1	1
176	3	192.02  	208.391  	174.219  	-1	1	1
177	3	193.698  	182.013  	189.293  	-1	1	1
178	3	187.426  	152.37  	187.233  	-1	1	1
179	3	188.049  	124.977  	202.489  	-1	1	1
180	3	201.842  	101.951  	215.675  	-1	1	1
181	3	220.843  	77.8782  	221.678  	-1	1	1
182	3	231.45  	58.3597  	242.18  	-1	1	1
183	3	247.001  	42.3072  	262.547  	-1	1	1
184	3	257.8  	27.3299  	287.086  	-1	1	1
185	3	268.105  	11.6866  	310.987  	-1	1	1
186	3	280.39  	14.9149  	338.076  	-1	1	1
187	3	289.658  	11.052  	366.741  	-1	1	1
188	3	294.038  	4.7556  	397.5  	-1	1	1
189	3	307.683  	2.11575  	424.749  	-1	1	1
190	3	317.127  	6.20214  	453.927  	-1	1	1
191	3	331.947  	7.4963  	480.936  	-1	1	1
192	3	341.404  	24.0252  	505.528  	-1	1	1
193	3	352.671  	43.2624  	526.743  	-1	1	1
194	3	358.658  	72.4017  	534.486  	-1	1	1
195	3	347.269  	101.059  	531.925  	-1	1	1
196	3	343.826  	127.714  	518.399  	-1	1	1
197	3	339.436  	158.653  	513.007  	-1	1	1
198	3	342.742  	188.809  	499.243  	-1	1	1
199	3	339.709  	216.91  	487.729  	-1	1	1
200	3	337.989  	241.836  	468.9  	-1	1	1
201	3	330.888  	254.63  	443.469  	-1	1	1
202	3	327.262  	277.687  	423.724  	-1	1	1
203	3	309.838  	299.826  	410.753  	-1	1	1
204	3	287.9  	317.46  	401.035  	-1	1	1
205	3	265.705  	336.606  	408.791  	-1	1	1
206	3	233.755  	334.045  	413.475  	-1	1	1
207	3	205.809  	335.513  	426.726  	-1	1	1
208	3	182.176  	339.777  	446.145  	-1	1	1
209	3	171.442  	348.427  	473.275  	-1	1	1
210	3	169.893  	351.153  	504.33  	-1	1	1
211	3	164.979  	350.071  	533.909  	-1	1	1
212	3	169.564  	348.59  	563.957  	-1	1	1
213	3	172.307  	328.306  	587.235  	-1	1	1
214	3	190.032  	316.361  	608.391  	-1	1	1
215	3	211.023  	317.714  	630.221  	-1	1	1
216	3	230.013  	312.668  	653.7  	-1	1	1
217	3	253.278  	297.568  	667.925  	-1	1	1
218	3	278.579  	284.053  	675.888  	-1	1	1
219	3	307.213  	273.499  	685.623  	-1	1	1
220	3	338.21  	270.958  	690.437  	-1	1	1
221	3	367.747  	268.042  	684.4  	-1	1	1
222	3	393.002  	282.801  	687.289  	-1	1	1
223	3	418.59  	299.628  	687.883  	-1	1	1
224	3	441.929  	317.001  	679.281  	-1	1	1
225	3	458.046  	342.364  	671.163  	-1	1	1
226	3	465.3  	364.543  	650.674  	-1	1	1
227	3	460.349  	392.172  	637.709  	-1	1	1
228	3	443.827  	412.375  	619.934  	-1	1	1
229	3	423.262  	412.49  	596.457  	-1	1	1
230	3	395.887  	418.151  	582.105  	-1	1	1
231	3	368.113  	418.414  	570.097  	-1	1	1
232	3	341.518  	427.688  	560.729  	-1	1	1
233	3	320.028  	438.352  	539.707  	-1	1	1
234	3	294.53  	447.585  	525.073  	-1	1	1
235	3	265.837  	450.675  	516.93  	-1	1	1
236	3	243.616  	439.549  	501.479  	-1	1	1
237	3	212.657  	443.825  	502.712  	-1	1	1
238	3	184.298  	454.42  	500.751  	-1	1	1
239	3	157.498  	466.022  	507.889  	-1	1	1
240	3	129.353  	477.084  	512.571  	-1	1	1
241	3	99.9631  	482.383  	511.207  	-1	1	1
242	3	70.0896  	482.382  	508.103  	-1	1	1
243	3	39.394  	482.188  	508.855  	-1	1	1
244	3	10.7587  	485.535  	520.316  	-1	1	1
245	3	-18.468  	480.182  	527.073  	-1	1	1
246	3	-47.9748  	487.41  	531.842  	-1	1	1
247	3	-68.566  	481.096  	552.887  	-1	1	1
248	3	-81.4533  	481.876  	581.608  	-1	1	1
249	3	-84.211  	477.532  	611.358  	-1	1	1
250	3	-88.5361  	472.595  	640.761  	-1	1	1
251	3	-73.8306  	487.349  	663.085  	-1	1	1
252	3	-44.1622  	492.866  	672.507  	-1	1	1
253	3	-19.5793  	512.525  	675.768  	-1	1	1
254	3	1.22386  	532.094  	662.939  	-1	1	1
255	3	18.0122  	540.836  	639.829  	-1	1	1
256	3	37.8681  	549.932  	618.549  	-1	1	1
257	3	59.7027  	567.042  	606.048  	-1	1	1
258	3	70.1769  	592.446  	590.402  	-1	1	1
259	3	69.2694  	620.654  	583.792  	-1	1	1
260	3	67.2435  	647.62  	567.009  	-1	1	1
261	3	62.561  	669.022  	545.256  	-1	1	1
262	3	63.4941  	694.116  	528.694  	-1	1	1
263	3	73.0151  	699.749  	499.96  	-1	1	1
264	3	75.2508  	700.726  	469.482  	-1	1	1
265	3	80.1094  	685.927  	442.531  	-1	1	1
266	3	81.1394  	677.557  	413.226  	-1	1	1
267	3	84.8072  	660.274  	387.844  	-1	1	1
268	3	90.5503  	637.682  	369.713  	-1	1	1
269	3	90.4977  	608.878  	359.724  	-1	1	1
270	3	93.339  	578.062  	359.16  	-1	1	1
271	3	86.53  	548.63  	366.672  	-1	1	1
272	3	79.0104  	519.321  	372.671  	-1	1	1
273	3	76.3783  	490.331  	371.603  	-1	1	1
274	3	81.2858  	461.451  	377.621  	-1	1	1
275	3	93.8856  	433.961  	382.93  	-1	1	1
276	3	101.879  	405.017  	391.352  	-1	1	1
277	3	115.639  	382.167  	406.957  	-1	1	1
278	3	139.363  	375.561  	424.714  	-1	1	1
279	3	167.127  	370.835  	414.503  	-1	1	1
280	3	194.971  	365.294  	403.252  	-1	1	1
281	3	225.111  	367.518  	397.203  	-1	1	1
282	3	254.073  	378.427  	392.686  	-1	1	1
283	3	284.896  	387.366  	386.291  	-1	1	1
284	3	313.93  	375.774  	383.994  	-1	1	1
285	3	343.245  	366.92  	386.437  	-1	1	1
286	3	369.471  	351.204  	391.142  	-1	1	1
287	3	391.912  	331.357  	394.915  	-1	1	1
288	3	419.064  	317.332  	391.054  	-1	1	1
289	3	449.639  	320.214  	390.566  	-1	1	1
290	3	473.471  	331.32  	406.163  	-1	1	1
291	3	497.664  	342.954  	422.218  	-1	1	1
292	3	506.602  	366.822  	437.675  	-1	1	1
293	3	521.496  	393.181  	443.322  	-1	1	1
294	3	535.278  	420.825  	446.241  	-1	1	1
295	3	538.19  	450.408  	450.544  	-1	1	1
296	3	527.173  	478.869  	450.359  	-1	1	1
297	3	511.416  	503.401  	453.765  	-1	1	1
298	3	494.205  	529.055  	455.512  	-1	1	1
299	3	483.748  	555.812  	446.749  	-1	1	1
300	3	464.099  	576.343  	433.596  	-1	1	1
301	3	445.193  	588.055  	411.665  	-1	1	1
302	3	445.129  	585.875  	380.707  	-1	1	1
303	3	446.887  	568.365  	356.342  	-1	1	1
304	3	446.886  	551.811  	331.188  	-1	1	1
305	3	450.27  	530.594  	308.69  	-1	1	1
306	3	450.443  	510.288  	283.702  	-1	1	1
307	3	458.515  	483.261  	271.825  	-1	1	1
308	3	482.957  	466.18  	265.051  	-1	1	1
309	3	502.649  	442.813  	274.445  	-1	1	1
310	3	517.832  	431.044  	296.282  	-1	1	1
311	3	533.732  	425.811  	320.827  	-1	1	1
312	3	541.209  	403.791  	340.423  	-1	1	1
313	3	559.665  	391.394  	360.003  	-1	1	1
314	3	565.522  	389.831  	390.135  	-1	1	1
315	3	561.649  	383.036  	419.042  	-1	1	1
316	3	569.684  	361.254  	438.48  	-1	1	1
317	3	565.077  	347.041  	465.577  	-1	1	1
318	3	563.352  	332.793  	492.745  	-1	1	1
319	3	549.448  	324.468  	519.236  	-1	1	1
320	3	545.885  	318.929  	548.995  	-1	1	1
321	3	538.863  	315.116  	579.839  	-1	1	1
322	3	526.642  	312.464  	607.571  	-1	1	1
323	3	529.519  	310.58  	639.275  	-1	1	1
324	3	523.166  	286.828  	658.374  	-1	1	1
325	3	523.485  	258.689  	675.14  	-1	1	1
326	3	518.714  	233.128  	690.534  	-1	1	1
327	3	503.671  	205.612  	685.726  	-1	1	1
328	3	503.049  	181.855  	667.558  	-1	1	1
329	3	507.381  	165.845  	642.971  	-1	1	1
330	3	519.281  	150.303  	619.153  	-1	1	1
331	3	529.733  	145.007  	590.405  	-1	1	1
332	3	520.637  	141.589  	561.145  	-1	1	1
333	3	502.66  	153.409  	538.354  	-1	1	1
334	3	478.368  	159.867  	521.37  	-1	1	1
335	3	462.245  	180.991  	507.585  	-1	1	1
336	3	439.949  	200.788  	512.246  	-1	1	1
337	3	412.213  	212.724  	516.187  	-1	1	1
338	3	385.97  	222.246  	531.738  	-1	1	1
339	3	355.674  	221.788  	535.748  	-1	1	1
340	3	333.49  	207.596  	551.068  	-1	1	1
341	3	315.96  	190.423  	568.662  	-1	1	1
342	3	294.687  	172.149  	577.99  	-1	1	1
343	3	277.937  	156.311  	599.245  	-1	1	1
344	3	259.969  	146.306  	621.432  	-1	1	1
345	3	240.428  	132.721  	641.8  	-1	1	1
346	3	213.711  	123.957  	649.806  	-1	1	1
347	3	187.593  	113.218  	660.242  	-1	1	1
348	3	163.329  	118.693  	677.648  	-1	1	1
349	3	132.519  	113.277  	679.404  	-1	1	1
350	3	102.902  	104.306  	676.022  	-1	1	1
351	3	72.6963  	108.893  	671.944  	-1	1	1
352	3	47.2856  	125.214  	664.237  	-1	1	1
353	3	19.72  	140.429  	670.547  	-1	1	1
354	3	0.38455  	163  	674.612  	-1	1	1
355	3	-12.369  	191.177  	677.635  	-1	1	1
356	3	-18.7458  	219.361  	678.967  	-1	1	1
357	3	-11.9514  	247.738  	688.562  	-1	1	1
358	3	-6.69555  	266.835  	712.074  	-1	1	1
359	3	-12.2212  	294.962  	723.543  	-1	1	1
360	3	-22.033  	322.208  	734.214  	-1	1	1
361	3	-20.1525  	350.883  	745.221  	-1	1	1
362	3	-36.367  	374.061  	757.895  	-1	1	1
363	3	-58.7896  	392.818  	766.767  	-1	1	1
364	3	-89.5835  	397.114  	767.909  	-1	1	1
365	3	-117.608  	402.166  	757.417  	-1	1	1
366	3	-147.413  	404.877  	752.754  	-1	1	1
367	3	-177.435  	398.886  	753.066  	-1	1	1
368	3	-204.962  	395.562  	738.579  	-1	1	1
369	3	-235.159  	387.876  	736.818  	-1	1	1
370	3	-255.164  	368.22  	726.997  	-1	1	1
371	3	-280.753  	355.986  	715.541  	-1	1	1
372	3	-297.986  	334.106  	700.111  	-1	1	1
373	3	-325.141  	324.887  	687.997  	-1	1	1
374	3	-340.75  	299.327  	679.005  	-1	1	1
375	3	-362.752  	278.477  	676.918  	-1	1	1
376	3	-385.994  	256.995  	673.132  	-1	1	1
377	3	-408.07  	234.932  	673.072  	-1	1	1
378	3	-420.463  	207.224  	667.719  	-1	1	1
379	3	-426.149  	179.659  	679.3  	-1	1	1
380	3	-426.458  	153.587  	694.345  	-1	1	1
381	3	-418.103  	125.237  	708.423  	-1	1	1
382	3	-407.754  	96.9094  	717.126  	-1	1	1
383	3	-391.397  	71.8822  	722.368  	-1	1	1
384	3	-370.939  	49.5778  	730.374  	-1	1	1
385	3	-340.475  	53.2374  	733.487  	-1	1	1
386	3	-314.427  	63.4294  	743.17  	-1	1	1
387	3	-286.177  	73.6858  	749.558  	-1	1	1
388	3	-258.119  	85.1782  	747.279  	-1	1	1
389	3	-229.623  	94.0863  	754.414  	-1	1	1
390	3	-202.36  	110.833  	753.059  	-1	1	1
391	3	-191.271  	137.113  	741.113  	-1	1	1
392	3	-174.927  	161.23  	730.936  	-1	1	1
393	3	-171.652  	189.021  	718.415  	-1	1	1
394	3	-156.685  	204.342  	696.825  	-1	1	1
395	3	-156.755  	220.707  	670.341  	-1	1	1
396	3	-169.476  	240.966  	650.441  	-1	1	1
397	3	-188.69  	261.006  	635.311  	-1	1	1
398	3	-209.304  	269.317  	614.154  	-1	1	1
399	3	-226.926  	276.178  	590.219  	-1	1	1
400	3	-243.68  	266.825  	565.118  	-1	1	1
401	3	-257.874  	254.586  	540.465  	-1	1	1
402	3	-279.553  	234.802  	528.225  	-1	1	1
403	3	-294.651  	225.379  	503.131  	-1	1	1
404	3	-311.059  	206.873  	484.832  	-1	1	1
405	3	-322.177  	178.187  	477.925  	-1	1	1
406	3	-338.476  	152.614  	478.535  	-1	1	1
407	3	-348.031  	124.454  	476.625  	-1	1	1
408	3	-359.587  	96.2484  	472.223  	-1	1	1
409	3	-355.515  	70.3988  	458.197  	-1	1	1
410	3	-349.926  	41.1426  	449.405  	-1	1	1
411	3	-350.116  	11.3457  	446.571  	-1	1	1
412	3	-357.277  	-17.6373  	445.314  	-1	1	1
413	3	-354.43  	-46.4181  	436.168  	-1	1	1
414	3	-343.37  	-71.9135  	422.766  	-1	1	1
415	3	-331.332  	-97.0965  	407.678  	-1	1	1
416	3	-318.142  	-120.571  	394.326  	-1	1	1
417	3	-290.743  	-125.349  	379.46  	-1	1	1
418	3	-260.569  	-121.323  	374.072  	-1	1	1
419	3	-231.344  	-116.46  	367.494  	-1	1	1
420	3	-200.822  	-117.624  	374.359  	-1	1	1
421	3	-173.255  	-107.989  	381.201  	-1	1	1
422	3	-145.077  	-94.6566  	382.002  	-1	1	1
423	3	-120.477  	-91.017  	399.459  	-1	1	1
424	3	-101.012  	-67.9558  	407.931  	-1	1	1
425	3	-82.0406  	-46.376  	415.634  	-1	1	1
426	3	-68.7472  	-21.8961  	428.606  	-1	1	1
427	3	-69.6361  	-2.38615  	451.688  	-1	1	1
428	3	-70.8943  	12.6373  	478.828  	-1	1	1
429	3	-78.9195  	29.3779  	502.415  	-1	1	1
430	3	-76.1319  	34.1533  	532.441  	-1	1	1
431	3	-74.4453  	33.3363  	562.87  	-1	1	1
432	3	-78.1395  	26.4208  	592.932  	-1	1	1
433	3	-90.0465  	22.8021  	621.281  	-1	1	1
434	3	-105.252  	28.3682  	646.22  	-1	1	1
435	3	-116.571  	44.0274  	668.979  	-1	1	1
436	3	-128.164  	59.6913  	693.049  	-1	1	1
437	3	-141.585  	68.5388  	718.877  	-1	1	1
438	3	-149.851  	82.0035  	744.81  	-1	1	1
439	3	-154.879  	78.9851  	774.894  	-1	1	1
440	3	-171.12  	68.6649  	799.487  	-1	1	1
441	3	-184.266  	43.4903  	812.262  	-1	1	1
442	3	-191.427  	14.7385  	820.107  	-1	1	1
443	3	-203.797  	-14.8243  	824.155  	-1	1	1
444	3	-220.159  	-42.6475  	825.886  	-1	1	1
445	3	-238.915  	-66.9862  	823.374  	-1	1	1
446	3	-235.293  	-96.5025  	810.465  	-1	1	1
447	3	-240.065  	-107.018  	782.004  	-1	1	1
448	3	-242.738  	-106.608  	750.818  	-1	1	1
449	3	-238.366  	-97.4428  	722.617  	-1	1	1
450	3	-222.849  	-84.9454  	699.69  	-1	1	1
451	3	-206.272  	-76.2684  	676.002  	-1	1	1
452	3	-183.718  	-71.404  	656.048  	-1	1	1
453	3	-155.421  	-58.858  	654.409  	-1	1	1
454	3	-127.967  	-45.4302  	649.653  	-1	1	1
455	3	-102.221  	-28.8819  	651.829  	-1	1	1
456	3	-75.8964  	-37.1971  	666.13  	-1	1	1
457	3	-48.4491  	-44.7624  	679.984  	-1	1	1
458	3	-30.3873  	-58.0044  	700.622  	-1	1	1
459	3	-20.6056  	-73.2344  	725.68  	-1	1	1
460	3	-13.1261  	-98.5545  	740.347  	-1	1	1
461	3	-8.71476  	-124.961  	755.101  	-1	1	1
462	3	9.9206  	-148.828  	760.322  	-1	1	1
463	3	4.68041  	-175.978  	748.759  	-1	1	1
464	3	-1.85714  	-195.692  	724.871  	-1	1	1
465	3	-19.0562  	-211.902  	705.809  	-1	1	1
466	3	-35.3799  	-227.436  	686.014  	-1	1	1
467	3	-43.9352  	-240.114  	659.01  	-1	1	1
468	3	-45.0412  	-237.093  	627.393  	-1	1	1
469	3	-48.4489  	-227.219  	598.606  	-1	1	1
470	3	-53.8518  	-210.351  	574.986  	-1	1	1
471	3	-45.9412  	-192.374  	552.111  	-1	1	1
472	3	-43.5162  	-177.8  	524.943  	-1	1	1
473	3	-36.4451  	-162.258  	498.417  	-1	1	1
474	3	-22.3678  	-137.791  	489.302  	-1	1	1
475	3	-8.61651  	-113.513  	477.349  	-1	1	1
476	3	14.1734  	-96.6577  	466.542  	-1	1	1
477	3	40.0864  	-96.9212  	450.349  	-1	1	1
478	3	64.7412  	-105.69  	433.854  	-1	1	1
479	3	91.6193  	-119.882  	426.038  	-1	1	1
480	3	118.235  	-129.57  	413.626  	-1	1	1
481	3	134.158  	-129.767  	386.698  	-1	1	1
482	3	158.324  	-144.006  	373.556  	-1	1	1
483	3	175.315  	-165.52  	360.018  	-1	1	1
484	3	173.683  	-189.124  	339.586  	-1	1	1
485	3	165.441  	-199.683  	312.274  	-1	1	1
486	3	144.924  	-209.081  	293.616  	-1	1	1
487	3	115.779  	-204.778  	284.372  	-1	1	1
488	3	89.7176  	-199.025  	267.546  	-1	1	1
489	3	69.7825  	-202.396  	244.088  	-1	1	1
490	3	60.3354  	-211.61  	215.784  	-1	1	1
491	3	47.671  	-221.024  	189.27  	-1	1	1
492	3	41.032  	-230.154  	160.165  	-1	1	1
493	3	42.2682  	-236.383  	130.014  	-1	1	1
494	3	31.5012  	-249.341  	104.806  	-1	1	1
495	3	11.3746  	-267.24  	89.1268  	-1	1	1
496	3	-13.4282  	-258.68  	74.0172  	-1	1	1
497	3	-38.8984  	-246.286  	61.9116  	-1	1	1
498	3	-58.6469  	-225.292  	53.6019  	-1	1	1
499	3	-81.517  	-206.929  	45.8376  	-1	1	1
500	3	-97.2094  	-181.783  	49.2758  	-1	1	1
501	3	-121.847  	-167.926  	62.085  	-1	1	1
502	3	-144.768  	-149.72  	73.8486  	-1	1	1
503	3	-153.012  	-132.651  	99.4779  	-1	1	1
504	3	-139.967  	-116.282  	122.277  	-1	1	1
505	3	-119.372  	-95.2531  	131.473  	-1	1	1
506	3	-94.3047  	-84.7039  	145.359  	-1	1	1
507	3	-68.869  	-69.6058  	158.027  	-1	1	1
508	3	-39.6902  	-62.0875  	163.501  	-1	1	1
509	3	-13.6834  	-48.0655  	170.747  	-1	1	1
510	3	10.8499  	-29.5594  	173.361  	-1	1	1
511	3	33.8432  	-9.9464  	179.342  	-1	1	1
512	3	44.947  	14.0276  	196.359  	-1	1	1
513	3	51.9379  	35.5939  	216.559  	-1	1	1
514	3	43.8527  	52.3367  	241.139  	-1	1	1
515	3	31.7621  	68.3847  	266.632  	-1	1	1
516	3	18.7321  	64.7882  	292.453  	-1	1	1
517	3	4.76951  	64.8628  	320.312  	-1	1	1
518	3	-17.0838  	63.8994  	341.752  	-1	1	1
519	3	-40.7631  	74.7194  	355.752  	-1	1	1
520	3	-54.8494  	94.4656  	376.934  	-1	1	1
521	3	-63.956  	118.357  	394.651  	-1	1	1
522	3	-81.051  	139.482  	408.93  	-1	1	1
523	3	-99.1471  	148.358  	433.023  	-1	1	1
524	3	-113.437  	150.231  	458.342  	-1	1	1
525	3	-119.08  	139.168  	484.491  	-1	1	1
526	3	-109.474  	121.925  	507.734  	-1	1	1
527	3	-100.352  	120.121  	537.313  	-1	1	1
528	3	-93.9435  	106.603  	562.702  	-1	1	1
529	3	-83.1086  	93.8776  	588.436  	-1	1	1
530	3	-58.1819  	91.0083  	607.42  	-1	1	1
531	3	-28.3398  	87.5588  	609.255  	-1	1	1
532	3	2.71287  	90.4368  	601.769  	-1	1	1
533	3	30.6509  	90.8673  	587.207  	-1	1	1
534	3	57.2527  	94.5994  	574.231  	-1	1	1
535	3	76.5326  	84.355  	553.147  	-1	1	1
536	3	87.8636  	86.9805  	524.109  	-1	1	1
537	3	77.9365  	88.5578  	495.317  	-1	1	1
538	3	69.1709  	83.3783  	466.239  	-1	1	1
539	3	68.6671  	91.4066  	436.69  	-1	1	1
540	3	62.2737  	85.3414  	406.344  	-1	1	1
541	3	50.8178  	92.9445  	378.393  	-1	1	1
542	3	36.4729  	102.023  	351.939  	-1	1	1
543	3	29.2377  	119.536  	328.237  	-1	1	1
544	3	10.2913  	136.008  	309.59  	-1	1	1
545	3	-15.6111  	140.807  	295.435  	-1	1	1
546	3	-39.7304  	150.455  	280.287  	-1	1	1
547	3	-63.5585  	159.744  	264.132  	-1	1	1
548	3	-80.9893  	182.694  	252.925  	-1	1	1
549	3	-85.3142  	205.063  	233.759  	-1	1	1
550	3	-82.1709  	225.26  	212.421  	-1	1	1
551	3	-68.5649  	243.455  	192.299  	-1	1	1
552	3	-63.5338  	271.534  	182.351  	-1	1	1
553	3	-58.6514  	301.661  	179.024  	-1	1	1
554	3	-42.345  	325.929  	171.831  	-1	1	1
555	3	-15.527  	338.127  	166.075  	-1	1	1
556	3	14.0464  	338.4  	174.48  	-1	1	1
557	3	42.9387  	335.13  	183.227  	-1	1	1
558	3	66.4918  	318.438  	191.08  	-1	1	1
559	3	85.8084  	299.579  	205.053  	-1	1	1
560	3	94.3392  	269.86  	206.981  	-1	1	1
561	3	97.2633  	239.221  	208.208  	-1	1	1
562	3	105.882  	208.993  	210.594  	-1	1	1
563	3	125.723  	185.857  	216.18  	-1	1	1
564	3	143.995  	164.095  	225.844  	-1	1	1
565	3	154.849  	136.794  	233.915  	-1	1	1
566	3	149.97  	108.284  	241.282  	-1	1	1
567	3	143.5  	79.3346  	236.907  	-1	1	1
568	3	142.249  	53.5967  	220.802  	-1	1	1
569	3	134.016  	25.608  	212.314  	-1	1	1
570	3	124.571  	-1.50033  	204.805  	-1	1	1
571	3	117.207  	-30.6111  	192.66  	-1	1	1
572	3	102.637  	-56.7826  	184.18  	-1	1	1
573	3	93.0734  	-82.2077  	169.202  	-1	1	1
574	3	91.6033  	-107.281  	151.854  	-1	1	1
575	3	93.4384  	-134.552  	138.42  	-1	1	1
576	3	112.473  	-151.008  	121.897  	-1	1	1
577	3	137.872  	-157.206  	102.14  	-1	1	1
578	3	155.852  	-170.995  	82.0969  	-1	1	1
579	3	178.881  	-160.083  	64.5951  	-1	1	1
580	3	190.173  	-145.428  	42.0423  	-1	1	1
581	3	202.215  	-122.335  	27.2236  	-1	1	1
582	3	210.061  	-97.9361  	12.6675  	-1	1	1
583	3	227.555  	-76.7545  	-2.50666  	-1	1	1
584	3	243.876  	-51.8013  	-6.19875  	-1	1	1
585	3	264.751  	-29.2434  	-9.52661  	-1	1	1
586	3	279.117  	-2.26249  	-11.7847  	-1	1	1
587	3	292.18  	18.915  	6.47627  	-1	1	1
588	3	286.601  	41.7469  	26.2586  	-1	1	1
589	3	286.556  	65.3956  	44.2862  	-1	1	1
590	3	294.281  	78.1464  	70.9659  	-1	1	1
591	3	313.108  	79.6238  	96.2467  	-1	1	1
592	3	327.483  	96.7827  	118.09  	-1	1	1
593	3	327.063  	117.627  	139.475  	-1	1	1
594	3	325.273  	129.457  	167.395  	-1	1	1
595	3	314.745  	134.86  	196.745  	-1	1	1
596	3	303.713  	124.645  	222.581  	-1	1	1
597	3	294.825  	104.653  	243.698  	-1	1	1
598	3	281.531  	77.4337  	242.298  	-1	1	1
599	3	275.015  	48.1222  	242.226  	-1	1	1
600	3	278.034  	16.6694  	237.317  	-1	1	1
601	3	283.841  	-13.3409  	233.532  	-1	1	1
602	3	287.684  	-41.3529  	224.412  	-1	1	1
603	3	286.62  	-72.715  	216.896  	-1	1	1
604	3	294.53  	-102.226  	221.016  	-1	1	1
605	3	305.375  	-121.757  	241.261  	-1	1	1
606	3	316.224  	-140.529  	262.794  	-1	1	1
607	3	325.758  	-164.107  	278.966  	-1	1	1
608	3	335.95  	-183.863  	299.601  	-1	1	1
609	3	338.058  	-202.086  	322.74  	-1	1	1
610	3	335.577  	-220.346  	346.282  	-1	1	1
611	3	332.52  	-238.271  	370.638  	-1	1	1
612	3	331.348  	-251.22  	398.628  	-1	1	1
613	3	341.086  	-256.725  	427.787  	-1	1	1
614	3	350.516  	-256.832  	457.317  	-1	1	1
615	3	351.153  	-238.365  	482.26  	-1	1	1
616	3	345.055  	-211.273  	497.731  	-1	1	1
617	3	344.903  	-183.618  	511.716  	-1	1	1
618	3	347.286  	-155.457  	520.605  	-1	1	1
619	3	339.126  	-126.394  	520.139  	-1	1	1
620	3	325.651  	-99.7662  	517.557  	-1	1	1
621	3	298.377  	-91.8296  	506.028  	-1	1	1
622	3	274.429  	-81.946  	491.348  	-1	1	1
623	3	261.885  	-59.2166  	471.882  	-1	1	1
624	3	259.419  	-41.7624  	447.205  	-1	1	1
625	3	258.56  	-28.2825  	419.112  	-1	1	1
626	3	267.195  	-30.2136  	389.773  	-1	1	1
627	3	272.847  	-21.8829  	358.458  	-1	1	1
628	3	279.442  	-24.9584  	328.181  	-1	1	1
629	3	295.838  	-37.379  	305.364  	-1	1	1
630	3	308.215  	-55.2323  	280.922  	-1	1	1
631	3	333.089  	-61.2521  	264.943  	-1	1	1
632	3	362.849  	-63.8874  	259.366  	-1	1	1
633	3	389.933  	-54.3262  	269.941  	-1	1	1
634	3	414.788  	-36.4124  	279.604  	-1	1	1
635	3	438.817  	-19.5028  	287.2  	-1	1	1
636	3	460.427  	2.4032  	283.977  	-1	1	1
637	3	468.162  	32.3615  	282.249  	-1	1	1
638	3	470.464  	62.9865  	291.924  	-1	1	1
639	3	469.416  	92.7567  	299.492  	-1	1	1
640	3	467.744  	124.749  	303.582  	-1	1	1
641	3	469.006  	155.725  	303.634  	-1	1	1
642	3	462.023  	184.585  	294.549  	-1	1	1
643	3	457.156  	211.811  	281.795  	-1	1	1
644	3	452.893  	228.301  	257.05  	-1	1	1
645	3	453.957  	248.782  	233.346  	-1	1	1
646	3	458.562  	269.386  	211.248  	-1	1	1
647	3	465.964  	279.352  	181.485  	-1	1	1
648	3	472.297  	280.162  	151.905  	-1	1	1
649	3	476.168  	286.216  	122.202  	-1	1	1
650	3	485.572  	288.366  	92.8857  	-1	1	1
651	3	493.749  	292.589  	63.7118  	-1	1	1
652	3	506.263  	283.317  	36.5796  	-1	1	1
653	3	513.659  	287.31  	7.81232  	-1	1	1
654	3	525.1  	305.027  	-15.4123  	-1	1	1
655	3	523.182  	320.918  	-42.3278  	-1	1	1
656	3	521.788  	335.21  	-69.2029  	-1	1	1
657	3	528.327  	344.546  	-96.983  	-1	1	1
658	3	523.158  	350.808  	-127.548  	-1	1	1
659	3	515.983  	370.777  	-149.829  	-1	1	1
660	3	510.092  	392.312  	-171.049  	-1	1	1
661	3	498.178  	405.247  	-195.696  	-1	1	1
662	3	471.385  	404.286  	-210.897  	-1	1	1
663	3	450.453  	392.733  	-230.75  	-1	1	1
664	3	426.095  	377.136  	-241.245  	-1	1	1
665	3	399.096  	363.407  	-243.485  	-1	1	1
666	3	372.595  	349.047  	-242.411  	-1	1	1
667	3	352.66  	333.527  	-225.71  	-1	1	1
668	3	326.264  	317.857  	-226.908  	-1	1	1
669	3	314.622  	296.364  	-246.144  	-1	1	1
670	3	307.969  	279.856  	-271.113  	-1	1	1
671	3	313.361  	252.358  	-284.325  	-1	1	1
672	3	326.85  	234.503  	-306.286  	-1	1	1
673	3	342.444  	219.748  	-326.764  	-1	1	1
674	3	358.959  	214.317  	-352.485  	-1	1	1
675	3	378.536  	222.84  	-374.358  	-1	1	1
676	3	392.703  	235.598  	-397.163  	-1	1	1
677	3	410.365  	252.21  	-414.704  	-1	1	1
678	3	419.678  	264.271  	-440.509  	-1	1	1
679	3	432.754  	265.76  	-467.394  	-1	1	1
680	3	438.211  	261.315  	-496.075  	-1	1	1
681	3	444.937  	238.229  	-514.529  	-1	1	1
682	3	433.718  	212.776  	-526.324  	-1	1	1
683	3	419.134  	188.207  	-516.409  	-1	1	1
684	3	418.019  	158.865  	-507.342  	-1	1	1
685	3	417.435  	134.165  	-490.088  	-1	1	1
686	3	411.892  	107.123  	-474.627  	-1	1	1
687	3	419.581  	84.4817  	-453.917  	-1	1	1