# LAMMPS data file for replicating chromosomes formed of rigid body monomers

8612		atoms
8		atom types
6050		ellipsoids
6001		bonds
2		bond types
12002		angles
4		angle types


-1140	1140	xlo xhi
-1140	1140	ylo yhi
-1140	1140	zlo zhi

Atoms # atom-ID atom-type x y z molecule-ID ellipsoid-flag density

1	5	112.578  	627.423  	216.1  	-1	1	1
2	3	99.5858  	602.001  	226.175  	-1	1	1
3	3	89.4088  	576.457  	214.012  	-1	1	1
4	3	81.4981  	569.723  	185.582  	-1	1	1
5	3	64.0196  	594.125  	177.63  	-1	1	1
6	3	51.9566  	611.102  	200.146  	-1	1	1
7	3	64.0228  	623.679  	225.535  	-1	1	1
8	3	83.5334  	630.009  	248.55  	-1	1	1
9	3	103.019  	645.122  	267.316  	-1	1	1
10	3	127.112  	665.422  	269.384  	-1	1	1
11	3	150.269  	681.816  	253.867  	-1	1	1
12	3	163.833  	694.983  	228.65  	-1	1	1
13	3	180.543  	693.849  	202.122  	-1	1	1
14	3	191.024  	669.003  	185.823  	-1	1	1
15	3	206.883  	642.366  	183.883  	-1	1	1
16	3	222.063  	626.796  	205.277  	-1	1	1
17	3	230.058  	602.023  	221.836  	-1	1	1
18	3	236.567  	576.923  	236.805  	-1	1	1
19	3	241.341  	547.536  	230.537  	-1	1	1
20	3	237.282  	520.669  	218.99  	-1	1	1
21	3	235.655  	491.248  	208.211  	-1	1	1
22	3	235.532  	465.099  	192.957  	-1	1	1
23	3	234.817  	486.975  	170.864  	-1	1	1
24	3	233.336  	509.492  	148.783  	-1	1	1
25	3	231.878  	531.076  	125.208  	-1	1	1
26	3	229.845  	557.455  	112.016  	-1	1	1
27	3	228.677  	582.697  	93.9363  	-1	1	1
28	3	216.126  	610.766  	88.0703  	-1	1	1
29	3	214.736  	634.085  	109.487  	-1	1	1
30	3	219.262  	650.676  	134.923  	-1	1	1
31	3	218.211  	668.978  	159.448  	-1	1	1
32	3	219.849  	692.037  	180.856  	-1	1	1
33	3	243.798  	710.571  	178.669  	-1	1	1
34	3	269.938  	704.724  	165.728  	-1	1	1
35	3	291.977  	683.406  	169.39  	-1	1	1
36	3	309.692  	665.153  	186.723  	-1	1	1
37	3	310.262  	656.152  	216.228  	-1	1	1
38	3	316.82  	645.672  	244.529  	-1	1	1
39	3	326.146  	631.695  	270.346  	-1	1	1
40	3	348.211  	611.925  	270.286  	-1	1	1
41	3	365.8  	606.136  	245.339  	-1	1	1
42	3	380.494  	598.954  	220.209  	-1	1	1
43	3	390.775  	596.311  	192.022  	-1	1	1
44	3	394.598  	606.946  	162.321  	-1	1	1
45	3	415.747  	621.556  	145.831  	-1	1	1
46	3	440.486  	637.707  	152.822  	-1	1	1
47	3	464.133  	654.171  	164.231  	-1	1	1
48	3	471.276  	665.211  	192.385  	-1	1	1
49	3	470.221  	662.332  	222.56  	-1	1	1
50	3	475.196  	646.708  	249.694  	-1	1	1
51	3	478.344  	637.181  	278.258  	-1	1	1
52	3	489.311  	613.806  	293.486  	-1	1	1
53	3	495.526  	584.169  	294.345  	-1	1	1
54	3	488.374  	561.953  	274.904  	-1	1	1
55	3	475.557  	547.465  	251.436  	-1	1	1
56	3	455.029  	531.781  	234.068  	-1	1	1
57	3	426.778  	520.937  	233.539  	-1	1	1
58	3	397.549  	518.129  	236.376  	-1	1	1
59	3	370.75  	529.904  	242.149  	-1	1	1
60	3	344.447  	544.811  	240.022  	-1	1	1
61	3	331.905  	572.553  	235.91  	-1	1	1
62	3	330.107  	601.676  	222.005  	-1	1	1
63	3	333.776  	632.839  	212.323  	-1	1	1
64	3	352.229  	655.023  	222.578  	-1	1	1
65	3	364.92  	669.497  	245.845  	-1	1	1
66	3	371.978  	656.245  	273.646  	-1	1	1
67	3	371.996  	636.381  	297.224  	-1	1	1
68	3	376.929  	606.331  	295.967  	-1	1	1
69	3	373.861  	582.917  	275.492  	-1	1	1
70	3	375.584  	571.049  	247.075  	-1	1	1
71	3	363.328  	568.785  	219.459  	-1	1	1
72	3	347.408  	575.273  	193.768  	-1	1	1
73	3	330.65  	587.737  	172.694  	-1	1	1
74	3	319.989  	608.916  	154.311  	-1	1	1
75	3	341.952  	595.173  	137.124  	-1	1	1
76	3	372.749  	589.505  	128.953  	-1	1	1
77	3	400.499  	584.123  	118.744  	-1	1	1
78	3	415.21  	585.656  	92.0616  	-1	1	1
79	3	409.807  	607.182  	70.7674  	-1	1	1
80	3	398.387  	629.21  	53.0828  	-1	1	1
81	3	389.608  	644.94  	29.7315  	-1	1	1
82	3	374.7  	671.345  	26.0895  	-1	1	1
83	3	359.912  	698.13  	21.7569  	-1	1	1
84	3	328.703  	704.721  	22.934  	-1	1	1
85	3	303.384  	691.959  	34.0177  	-1	1	1
86	3	284.996  	676.071  	51.9951  	-1	1	1
87	3	258.551  	660.381  	56.5156  	-1	1	1
88	3	236.247  	639.973  	62.4539  	-1	1	1
89	3	229.14  	623.636  	37.7096  	-1	1	1
90	3	226.067  	613.115  	8.47395  	-1	1	1
91	3	214.494  	620.635  	-18.7297  	-1	1	1
92	3	199.339  	642.453  	-31.9841  	-1	1	1
93	3	201.201  	672.899  	-32.5102  	-1	1	1
94	3	202.125  	703.719  	-31.9068  	-1	1	1
95	3	203.799  	733.635  	-35.2582  	-1	1	1
96	3	208.453  	763.444  	-38.7427  	-1	1	1
97	3	210.62  	790.945  	-52.7846  	-1	1	1
98	3	206.529  	805.986  	-78.7946  	-1	1	1
99	3	216.759  	789.706  	-101.607  	-1	1	1
100	3	224.473  	761.371  	-94.5673  	-1	1	1
101	3	231.821  	744.052  	-71.7305  	-1	1	1
102	3	251.924  	726.467  	-55.3448  	-1	1	1
103	3	273.9  	708.452  	-44.7057  	-1	1	1
104	3	280.12  	678.56  	-37.8374  	-1	1	1
105	3	271.855  	655.592  	-55.1768  	-1	1	1
106	3	259.657  	652.417  	-83.0382  	-1	1	1
107	3	250.931  	670.303  	-107.339  	-1	1	1
108	3	250.848  	683.974  	-134.738  	-1	1	1
109	3	256.654  	693.452  	-164.096  	-1	1	1
110	3	266.787  	708.478  	-189.384  	-1	1	1
111	3	288.813  	713.31  	-166.754  	-1	1	1
112	3	297.335  	712.584  	-137.164  	-1	1	1
113	3	304.811  	703.578  	-109.233  	-1	1	1
114	3	310.847  	703.6  	-78.3062  	-1	1	1
115	3	335.497  	719.82  	-68.4182  	-1	1	1
116	3	358.673  	727.47  	-86.273  	-1	1	1
117	3	383.598  	721.159  	-104.918  	-1	1	1
118	3	410.331  	714.623  	-116.871  	-1	1	1
119	3	434.685  	705.344  	-133.075  	-1	1	1
120	3	446.798  	702.609  	-162.12  	-1	1	1
121	3	451.765  	701.625  	-191.331  	-1	1	1
122	3	455.64  	708.563  	-221.315  	-1	1	1
123	3	451.908  	719.81  	-249.277  	-1	1	1
124	3	428.432  	722.176  	-268.32  	-1	1	1
125	3	400.418  	713.03  	-273.6  	-1	1	1
126	3	374.406  	713.511  	-257.261  	-1	1	1
127	3	363.944  	715.377  	-229.192  	-1	1	1
128	3	374.952  	702.487  	-203.175  	-1	1	1
129	3	397.129  	690.071  	-185.754  	-1	1	1
130	3	416.375  	667.586  	-191.759  	-1	1	1
131	3	415.257  	640.359  	-204.529  	-1	1	1
132	3	409.402  	614.209  	-218.814  	-1	1	1
133	3	409.895  	606.608  	-248.295  	-1	1	1
134	3	402.477  	595.754  	-275.18  	-1	1	1
135	3	401.307  	585.725  	-303.525  	-1	1	1
136	3	406.169  	559.372  	-317.538  	-1	1	1
137	3	407.714  	529.484  	-325.587  	-1	1	1
138	3	405.995  	502.403  	-313.62  	-1	1	1
139	3	406.393  	489.269  	-286.117  	-1	1	1
140	3	433.073  	501.119  	-276.225  	-1	1	1
141	3	460.571  	513.845  	-283.979  	-1	1	1
142	3	488.549  	512.86  	-298.39  	-1	1	1
143	3	513.396  	519.229  	-315.409  	-1	1	1
144	3	542.331  	513.886  	-325.629  	-1	1	1
145	3	571.272  	506.727  	-315.717  	-1	1	1
146	3	585.012  	498.698  	-289.932  	-1	1	1
147	3	579.998  	492.087  	-260.908  	-1	1	1
148	3	564.578  	489.369  	-235.555  	-1	1	1
149	3	542.812  	479.722  	-216.139  	-1	1	1
150	3	523.041  	468.509  	-193.658  	-1	1	1
151	3	504.476  	465.232  	-170.627  	-1	1	1
152	3	487.091  	453.303  	-150.067  	-1	1	1
153	3	501.839  	437.257  	-128.479  	-1	1	1
154	3	532.357  	435.237  	-128.546  	-1	1	1
155	3	559.89  	428.428  	-141.84  	-1	1	1
156	3	586.354  	415.388  	-149.209  	-1	1	1
157	3	608.648  	392.892  	-150.812  	-1	1	1
158	3	627.969  	369.806  	-159.3  	-1	1	1
159	3	647.099  	355.209  	-139.369  	-1	1	1
160	3	644.867  	349.504  	-109.406  	-1	1	1
161	3	641.593  	357.423  	-81.3529  	-1	1	1
162	3	635.248  	369.949  	-53.1969  	-1	1	1
163	3	622.604  	391.95  	-37.2492  	-1	1	1
164	3	610.536  	410.64  	-16.2714  	-1	1	1
165	3	594.214  	425.86  	4.64624  	-1	1	1
166	3	571.101  	443.206  	17.2194  	-1	1	1
167	3	543.316  	455.726  	21.6454  	-1	1	1
168	3	515.771  	461.457  	33.8444  	-1	1	1
169	3	492.285  	454.53  	52.6608  	-1	1	1
170	3	482.207  	459.291  	81.0931  	-1	1	1
171	3	491.494  	479.567  	102.699  	-1	1	1
172	3	511.392  	502.039  	103.736  	-1	1	1
173	3	528.004  	516.376  	81.6436  	-1	1	1
174	3	532.492  	528.928  	55.1639  	-1	1	1
175	3	544.353  	551.564  	39.9451  	-1	1	1
176	3	554.564  	578.973  	29.9569  	-1	1	1
177	3	548.962  	605.071  	14.5935  	-1	1	1
178	3	541.656  	624.767  	-7.94592  	-1	1	1
179	3	524.512  	642.02  	-26.9143  	-1	1	1
180	3	537.78  	619.475  	-44.2039  	-1	1	1
181	3	552.449  	594.171  	-53.094  	-1	1	1
182	3	567.042  	572.813  	-66.8126  	-1	1	1
183	3	590.852  	554.358  	-69.9353  	-1	1	1
184	3	617.171  	547.09  	-53.2285  	-1	1	1
185	3	625.87  	555.634  	-23.9825  	-1	1	1
186	3	636.058  	563.372  	2.59056  	-1	1	1
187	3	656.086  	577.287  	20.8793  	-1	1	1
188	3	656.396  	601.398  	38.0985  	-1	1	1
189	3	648.711  	611.753  	66.189  	-1	1	1
190	3	632.704  	595.207  	85.498  	-1	1	1
191	3	630.41  	580.226  	111.8  	-1	1	1
192	3	619.904  	553.716  	125.214  	-1	1	1
193	3	601.008  	532.271  	135.449  	-1	1	1
194	3	587.703  	508.706  	147.683  	-1	1	1
195	3	584.604  	486.243  	168.537  	-1	1	1
196	3	586.919  	465.818  	190.55  	-1	1	1
197	3	597.95  	454.652  	217.985  	-1	1	1
198	3	604.281  	457.135  	247.703  	-1	1	1
199	3	597.956  	457.526  	277.784  	-1	1	1
200	3	603.59  	459.813  	308.24  	-1	1	1
201	3	601.469  	469.663  	336.003  	-1	1	1
202	3	585.762  	478.518  	361.188  	-1	1	1
203	3	566.306  	475.254  	384.045  	-1	1	1
204	3	547.347  	471.033  	406.028  	-1	1	1
205	3	518.928  	463.049  	414.595  	-1	1	1
206	3	489.984  	458.361  	407.948  	-1	1	1
207	3	463.569  	446.244  	400.466  	-1	1	1
208	3	445.98  	435.274  	376.18  	-1	1	1
209	3	434.795  	426.126  	349.412  	-1	1	1
210	3	435.665  	420.113  	319.722  	-1	1	1
211	3	448.397  	435.648  	296.098  	-1	1	1
212	3	472.316  	453.509  	290.591  	-1	1	1
213	3	501.456  	460.199  	283.386  	-1	1	1
214	3	530.418  	454.092  	292.305  	-1	1	1
215	3	547.386  	442.8  	315.673  	-1	1	1
216	3	550.19  	432.61  	343.808  	-1	1	1
217	3	560.397  	428.283  	373.323  	-1	1	1
218	3	580.566  	411.305  	391.155  	-1	1	1
219	3	604.096  	391.199  	395.174  	-1	1	1
220	3	626.64  	380.052  	379.264  	-1	1	1
221	3	637.725  	372.871  	352.21  	-1	1	1
222	3	631.539  	363.509  	324.303  	-1	1	1
223	3	621.96  	342.793  	304.233  	-1	1	1
224	3	601.792  	324.565  	290.722  	-1	1	1
225	3	576.072  	314.399  	275.256  	-1	1	1
226	3	548.723  	318.779  	265.566  	-1	1	1
227	3	525.78  	337.624  	261.889  	-1	1	1
228	3	503.718  	356.746  	273.309  	-1	1	1
229	3	500.019  	375.477  	296.272  	-1	1	1
230	3	499.882  	377.843  	327.159  	-1	1	1
231	3	504.171  	371.979  	357.29  	-1	1	1
232	3	510.584  	367.205  	387.154  	-1	1	1
233	3	517.552  	374.906  	415.759  	-1	1	1
234	3	517.451  	382.819  	444.369  	-1	1	1
235	3	487.998  	394.344  	438.289  	-1	1	1
236	3	466.356  	403.654  	417.739  	-1	1	1
237	3	441.17  	414.476  	405.413  	-1	1	1
238	3	414.75  	428.609  	398.196  	-1	1	1
239	3	387.606  	445.564  	398.542  	-1	1	1
240	3	374.773  	462.372  	420.837  	-1	1	1
241	3	364.403  	460.732  	449.891  	-1	1	1
242	3	345.696  	449.393  	470.534  	-1	1	1
243	3	326.1  	446.493  	494.489  	-1	1	1
244	3	302.432  	455.162  	511.134  	-1	1	1
245	3	282.497  	479.252  	510.859  	-1	1	1
246	3	265.21  	503.92  	507.916  	-1	1	1
247	3	257.939  	517.826  	482.326  	-1	1	1
248	3	260.784  	519.972  	452.22  	-1	1	1
249	3	265.379  	524.578  	421.583  	-1	1	1
250	3	281.199  	528.767  	395.082  	-1	1	1
251	3	301.057  	527.828  	371.763  	-1	1	1
252	3	313.431  	510.372  	349.27  	-1	1	1
253	3	313.252  	484.273  	336.5  	-1	1	1
254	3	314.279  	455.616  	347.655  	-1	1	1
255	3	322.439  	444.262  	375.602  	-1	1	1
256	3	331.544  	446.682  	403.498  	-1	1	1
257	3	336.781  	446.604  	433.847  	-1	1	1
258	3	314.76  	463.001  	446.293  	-1	1	1
259	3	298.841  	486.814  	455.793  	-1	1	1
260	3	306.122  	509.719  	475.614  	-1	1	1
261	3	310.53  	515.038  	506.359  	-1	1	1
262	3	314.031  	497.303  	531.009  	-1	1	1
263	3	323.809  	470.572  	542.034  	-1	1	1
264	3	326.396  	440.319  	539.061  	-1	1	1
265	3	344.184  	417.769  	525.81  	-1	1	1
266	3	357.998  	397.22  	507.748  	-1	1	1
267	3	373.882  	386.318  	483.821  	-1	1	1
268	3	397.706  	381.257  	464.933  	-1	1	1
269	3	428.103  	377.992  	460.465  	-1	1	1
270	3	458.753  	370.482  	462.35  	-1	1	1
271	3	478.832  	376.511  	482.045  	-1	1	1
272	3	502.602  	376.168  	501.099  	-1	1	1
273	3	531.865  	368.739  	502.996  	-1	1	1
274	3	556.315  	360.932  	487.709  	-1	1	1
275	3	564.193  	351.729  	460.034  	-1	1	1
276	3	558.081  	339.711  	431.737  	-1	1	1
277	3	549.76  	338.628  	403.294  	-1	1	1
278	3	533.275  	334.985  	377.057  	-1	1	1
279	3	518.906  	341.891  	350.46  	-1	1	1
280	3	512.339  	344.846  	320.256  	-1	1	1
281	3	541.476  	336.822  	324.922  	-1	1	1
282	3	556.647  	312.999  	336.915  	-1	1	1
283	3	561.416  	292.266  	358.057  	-1	1	1
284	3	555.965  	265.772  	345.138  	-1	1	1
285	3	552.888  	243.514  	324.676  	-1	1	1
286	3	538.946  	218.273  	313.723  	-1	1	1
287	3	526.307  	190.009  	310.726  	-1	1	1
288	3	532.439  	180.719  	339.397  	-1	1	1
289	3	548.098  	193.436  	363.516  	-1	1	1
290	3	568.499  	211.729  	375.661  	-1	1	1
291	3	596.506  	221.832  	382.942  	-1	1	1
292	3	621.029  	203.874  	379.63  	-1	1	1
293	3	645.745  	190.694  	367.062  	-1	1	1
294	3	665.039  	176.714  	346.198  	-1	1	1
295	3	675.887  	169.216  	317.42  	-1	1	1
296	3	681.518  	157.123  	290.383  	-1	1	1
297	3	683.167  	163.536  	262.21  	-1	1	1
298	3	673.194  	148.104  	237.771  	-1	1	1
299	3	674.616  	123.791  	219.934  	-1	1	1
300	3	684.949  	95.0642  	215.224  	-1	1	1
301	3	707.643  	73.6297  	213.944  	-1	1	1
302	3	735.772  	63.935  	222.655  	-1	1	1
303	3	758.714  	66.0899  	243.366  	-1	1	1
304	3	787.213  	76.2028  	243.953  	-1	1	1
305	3	810.274  	96.4223  	251.004  	-1	1	1
306	3	814.844  	126.913  	251.395  	-1	1	1
307	3	803.721  	155.362  	245.404  	-1	1	1
308	3	781.276  	171.478  	232.537  	-1	1	1
309	3	760.333  	165.64  	211.641  	-1	1	1
310	3	737.276  	147.093  	204.395  	-1	1	1
311	3	728.085  	119.734  	214.829  	-1	1	1
312	3	715.247  	102.425  	235.764  	-1	1	1
313	3	713.124  	82.6257  	258.06  	-1	1	1
314	3	708.722  	76.2268  	287.886  	-1	1	1
315	3	707.539  	63.0626  	315.462  	-1	1	1
316	3	693.505  	43.3325  	336.69  	-1	1	1
317	3	677.267  	19.7012  	345.483  	-1	1	1
318	3	661.041  	-4.47295  	337.735  	-1	1	1
319	3	652.349  	-33.2569  	329.871  	-1	1	1
320	3	643.282  	-60.7458  	324.785  	-1	1	1
321	3	650.304  	-86.5203  	340.331  	-1	1	1
322	3	677.065  	-83.8748  	355.201  	-1	1	1
323	3	704.145  	-72.7155  	364.87  	-1	1	1
324	3	724.707  	-52.1055  	353.738  	-1	1	1
325	3	730.639  	-37.6694  	328.216  	-1	1	1
326	3	724.325  	-34.4509  	298.212  	-1	1	1
327	3	720.05  	-41.5381  	268.557  	-1	1	1
328	3	710.37  	-55.1956  	244.559  	-1	1	1
329	3	708.696  	-84.9865  	237.461  	-1	1	1
330	3	706.188  	-105.182  	261.917  	-1	1	1
331	3	691.918  	-96.0605  	286.997  	-1	1	1
332	3	679.443  	-80.9751  	310.394  	-1	1	1
333	3	683.742  	-56.5314  	331.189  	-1	1	1
334	3	677.924  	-36.8568  	353.71  	-1	1	1
335	3	680.806  	-19.3719  	379.076  	-1	1	1
336	3	675.524  	-3.81716  	404.443  	-1	1	1
337	3	679.759  	24.3944  	413.07  	-1	1	1
338	3	672.295  	40.277  	388.941  	-1	1	1
339	3	652.054  	26.1173  	370.636  	-1	1	1
340	3	642.874  	-2.15694  	370.202  	-1	1	1
341	3	635.958  	-29.1935  	381.706  	-1	1	1
342	3	635.319  	-59.9642  	391.351  	-1	1	1
343	3	648.821  	-85.4661  	400.178  	-1	1	1
344	3	667.228  	-106.854  	386.121  	-1	1	1
345	3	693.465  	-118.261  	373.592  	-1	1	1
346	3	704.229  	-127.032  	346.448  	-1	1	1
347	3	717.983  	-127.225  	319.153  	-1	1	1
348	3	725.482  	-135.235  	290.345  	-1	1	1
349	3	721.689  	-151.931  	264.864  	-1	1	1
350	3	697.793  	-165.037  	250.926  	-1	1	1
351	3	672.123  	-181.599  	254.137  	-1	1	1
352	3	675.612  	-187.03  	283.372  	-1	1	1
353	3	689.184  	-194.755  	308.169  	-1	1	1
354	3	690.724  	-194.427  	339.283  	-1	1	1
355	3	698.241  	-201.507  	368.358  	-1	1	1
356	3	686.658  	-229.638  	374.325  	-1	1	1
357	3	689.397  	-258.618  	379.307  	-1	1	1
358	3	694.753  	-276.802  	355.654  	-1	1	1
359	3	703.572  	-290.697  	330.168  	-1	1	1
360	3	700.079  	-280.134  	301.715  	-1	1	1
361	3	696.292  	-263.338  	275.973  	-1	1	1
362	3	685.935  	-238.351  	262.736  	-1	1	1
363	3	696.17  	-211.925  	250.974  	-1	1	1
364	3	717.913  	-192.757  	242.13  	-1	1	1
365	3	730.746  	-167.062  	233.261  	-1	1	1
366	3	732.798  	-144.717  	213.747  	-1	1	1
367	3	724.692  	-131.089  	185.883  	-1	1	1
368	3	704.166  	-140.252  	166.463  	-1	1	1
369	3	685.996  	-155.451  	147.795  	-1	1	1
370	3	665.071  	-170.581  	131.893  	-1	1	1
371	3	643.648  	-167.393  	109.116  	-1	1	1
372	3	629.532  	-163.475  	83.6023  	-1	1	1
373	3	619.521  	-152.482  	56.3675  	-1	1	1
374	3	601.619  	-137.388  	36.1606  	-1	1	1
375	3	604.161  	-106.815  	33.9842  	-1	1	1
376	3	611.199  	-76.9878  	34.274  	-1	1	1
377	3	624.915  	-50.9825  	25.0104  	-1	1	1
378	3	620.444  	-31.7761  	1.47917  	-1	1	1
379	3	625.459  	-33.2768  	-28.4318  	-1	1	1
380	3	625.005  	-50.5544  	-55.1938  	-1	1	1
381	3	640.893  	-76.6038  	-57.1871  	-1	1	1
382	3	657.703  	-98.7599  	-41.6565  	-1	1	1
383	3	673.91  	-122.548  	-33.884  	-1	1	1
384	3	696.783  	-141.739  	-31.5446  	-1	1	1
385	3	722.133  	-152.891  	-43.346  	-1	1	1
386	3	747.166  	-146.691  	-61.8675  	-1	1	1
387	3	758.367  	-136.796  	-89.7818  	-1	1	1
388	3	750.723  	-129.105  	-118.033  	-1	1	1
389	3	733.494  	-116.51  	-138.793  	-1	1	1
390	3	752.86  	-125.965  	-159.435  	-1	1	1
391	3	773.359  	-148.499  	-158.383  	-1	1	1
392	3	790.053  	-172.153  	-150.789  	-1	1	1
393	3	788.447  	-187.031  	-122.819  	-1	1	1
394	3	778.52  	-187.654  	-93.7779  	-1	1	1
395	3	756.524  	-189.226  	-71.4433  	-1	1	1
396	3	725.227  	-189.845  	-75.8084  	-1	1	1
397	3	707.85  	-173.43  	-94.2471  	-1	1	1
398	3	701.936  	-146.821  	-107.338  	-1	1	1
399	3	698.053  	-117.757  	-116.625  	-1	1	1
400	3	695.108  	-87.5567  	-118.389  	-1	1	1
401	3	703.863  	-60.0702  	-128.525  	-1	1	1
402	3	709.295  	-41.231  	-151.914  	-1	1	1
403	3	704.761  	-37.5922  	-181.528  	-1	1	1
404	3	690.357  	-47.6626  	-206.731  	-1	1	1
405	3	687.815  	-71.5339  	-225.6  	-1	1	1
406	3	673.418  	-86.2746  	-248.397  	-1	1	1
407	3	672.513  	-103.021  	-274.05  	-1	1	1
408	3	672.821  	-119.742  	-300.151  	-1	1	1
409	3	642.429  	-124.1  	-302.752  	-1	1	1
410	3	616.428  	-108.461  	-308.309  	-1	1	1
411	3	612.41  	-78.3706  	-306.21  	-1	1	1
412	3	611.771  	-49.6144  	-299.393  	-1	1	1
413	3	621.202  	-33.3276  	-274.418  	-1	1	1
414	3	604.248  	-30.4182  	-250.598  	-1	1	1
415	3	575.943  	-43.2597  	-249.12  	-1	1	1
416	3	565.468  	-67.5953  	-264.623  	-1	1	1
417	3	556.643  	-90.4635  	-283.043  	-1	1	1
418	3	542.927  	-113.426  	-296.427  	-1	1	1
419	3	528.575  	-138.516  	-305.332  	-1	1	1
420	3	506.312  	-155.669  	-316.343  	-1	1	1
421	3	482.146  	-165.273  	-334.21  	-1	1	1
422	3	452.161  	-159.265  	-333.758  	-1	1	1
423	3	425.154  	-152.541  	-324.721  	-1	1	1
424	3	403.549  	-139.77  	-308.858  	-1	1	1
425	3	391.931  	-136.329  	-280.373  	-1	1	1
426	3	377.842  	-130.394  	-252.98  	-1	1	1
427	3	364.995  	-126.422  	-224.45  	-1	1	1
428	3	334.542  	-125.442  	-218.675  	-1	1	1
429	3	310.62  	-107.969  	-224.411  	-1	1	1
430	3	303.648  	-81.6698  	-209.69  	-1	1	1
431	3	316.058  	-55.6794  	-199.283  	-1	1	1
432	3	341.294  	-43.9928  	-188.017  	-1	1	1
433	3	361.857  	-51.2084  	-166.796  	-1	1	1
434	3	382.513  	-70.3263  	-159.096  	-1	1	1
435	3	401.303  	-90.7721  	-170.975  	-1	1	1
436	3	411.263  	-106.835  	-194.336  	-1	1	1
437	3	416.462  	-114.745  	-223.984  	-1	1	1
438	3	434.064  	-115.903  	-250.002  	-1	1	1
439	3	447.174  	-107.08  	-276.521  	-1	1	1
440	3	455.462  	-93.5673  	-304.069  	-1	1	1
441	3	458.182  	-67.701  	-319.798  	-1	1	1
442	3	445.786  	-43.9014  	-333.959  	-1	1	1
443	3	423.194  	-24.4087  	-325.301  	-1	1	1
444	3	400.123  	-24.5974  	-306.578  	-1	1	1
445	3	396.688  	-43.9725  	-282.793  	-1	1	1
446	3	397.468  	-69.6115  	-265.619  	-1	1	1
447	3	406.58  	-99.0659  	-270.859  	-1	1	1
448	3	420.212  	-83.39  	-293.124  	-1	1	1
449	3	427.424  	-52.174  	-292.557  	-1	1	1
450	3	431.83  	-22.3228  	-285.082  	-1	1	1
451	3	425.734  	6.56384  	-284.521  	-1	1	1
452	3	417.19  	31.8797  	-299.858  	-1	1	1
453	3	390.681  	40.2498  	-312.909  	-1	1	1
454	3	364.047  	32.1591  	-302.634  	-1	1	1
455	3	366.617  	37.9333  	-272.045  	-1	1	1
456	3	386.695  	42.5855  	-248.452  	-1	1	1
457	3	398.945  	56.5916  	-224.052  	-1	1	1
458	3	402.57  	74.3603  	-199.827  	-1	1	1
459	3	414.403  	90.9643  	-177.869  	-1	1	1
460	3	437.628  	96.6959  	-159.054  	-1	1	1
461	3	466.127  	107.158  	-164.699  	-1	1	1
462	3	485.81  	118.349  	-183.236  	-1	1	1
463	3	500.983  	125.574  	-208.325  	-1	1	1
464	3	517.804  	140.28  	-227.878  	-1	1	1
465	3	530.552  	166.617  	-235.489  	-1	1	1
466	3	535.879  	192.822  	-251.107  	-1	1	1
467	3	530.74  	222.613  	-257.413  	-1	1	1
468	3	531.718  	253.285  	-262.423  	-1	1	1
469	3	526.656  	283.524  	-269.189  	-1	1	1
470	3	524.323  	312.932  	-266.151  	-1	1	1
471	3	523.685  	343.425  	-265.865  	-1	1	1
472	3	534.655  	366.971  	-282.203  	-1	1	1
473	3	527.312  	368.846  	-311.853  	-1	1	1
474	3	510.202  	362.403  	-336.542  	-1	1	1
475	3	491.842  	340.822  	-349.239  	-1	1	1
476	3	469.71  	330.563  	-367.897  	-1	1	1
477	3	444.316  	345.883  	-369.133  	-1	1	1
478	3	417.586  	358.377  	-365.069  	-1	1	1
479	3	396.468  	381.451  	-367.528  	-1	1	1
480	3	391.281  	380.508  	-396.738  	-1	1	1
481	3	399.097  	351.439  	-406.622  	-1	1	1
482	3	393.406  	323.76  	-389.729  	-1	1	1
483	3	386.018  	314.258  	-360.981  	-1	1	1
484	3	372.71  	327.004  	-335.892  	-1	1	1
485	3	362.182  	357.259  	-335.931  	-1	1	1
486	3	348.821  	376.572  	-354.996  	-1	1	1
487	3	322.282  	384.847  	-366.556  	-1	1	1
488	3	296.684  	386.507  	-348.966  	-1	1	1
489	3	298.962  	391.426  	-318.641  	-1	1	1
490	3	319.533  	390.406  	-295.492  	-1	1	1
491	3	340.138  	395.972  	-273.325  	-1	1	1
492	3	346.475  	426.102  	-276.296  	-1	1	1
493	3	348.549  	453.656  	-261.858  	-1	1	1
494	3	349.729  	459.705  	-230.959  	-1	1	1
495	3	363.883  	443.589  	-207.849  	-1	1	1
496	3	374.827  	415.852  	-202.521  	-1	1	1
497	3	381.335  	389.491  	-215.15  	-1	1	1
498	3	397.496  	370.739  	-232.132  	-1	1	1
499	3	415.74  	361.535  	-255.406  	-1	1	1
500	3	433.268  	374.055  	-277.344  	-1	1	1
501	3	427.642  	388.443  	-303.02  	-1	1	1
502	3	400.971  	382.248  	-319.342  	-1	1	1
503	3	386.658  	377.925  	-291.651  	-1	1	1
504	3	395.948  	396.802  	-269.858  	-1	1	1
505	3	414.765  	417.11  	-255.732  	-1	1	1
506	3	439.959  	433.786  	-255.866  	-1	1	1
507	3	459.534  	453.922  	-269.351  	-1	1	1
508	3	476.091  	472.54  	-289.027  	-1	1	1
509	3	466.316  	485.069  	-315.484  	-1	1	1
510	3	450.728  	484.882  	-342.178  	-1	1	1
511	3	419.832  	481.925  	-349.577  	-1	1	1
512	3	390.902  	472.749  	-354.905  	-1	1	1
513	3	364.973  	461.835  	-367.488  	-1	1	1
514	3	363.638  	442.969  	-390.243  	-1	1	1
515	3	356.514  	440.022  	-418.63  	-1	1	1
516	3	357.628  	440.835  	-448.996  	-1	1	1
517	3	361.836  	452.847  	-477.24  	-1	1	1
518	3	347.051  	473.845  	-493.16  	-1	1	1
519	3	327.933  	492.047  	-507.337  	-1	1	1
520	3	303.037  	504.509  	-518.878  	-1	1	1
521	3	276.247  	513.512  	-532.706  	-1	1	1
522	3	250.226  	527.219  	-535.524  	-1	1	1
523	3	242.009  	505.041  	-553.446  	-1	1	1
524	3	227.277  	490.196  	-576.089  	-1	1	1
525	3	218.172  	480.039  	-603.753  	-1	1	1
526	3	220.366  	482.32  	-633.988  	-1	1	1
527	3	237.645  	493.858  	-655.223  	-1	1	1
528	3	266.395  	490.015  	-662.441  	-1	1	1
529	3	291.434  	497.396  	-647.458  	-1	1	1
530	3	318.782  	494.638  	-636.006  	-1	1	1
531	3	344.792  	490.497  	-620.982  	-1	1	1
532	3	360.057  	494.706  	-594.441  	-1	1	1
533	3	361.215  	495.068  	-563.835  	-1	1	1
534	3	355.208  	475.621  	-540.768  	-1	1	1
535	3	356.413  	452.465  	-518.539  	-1	1	1
536	3	362.597  	426.613  	-501.833  	-1	1	1
537	3	360.106  	401.17  	-484.002  	-1	1	1
538	3	355.105  	379.602  	-464.805  	-1	1	1
539	3	361.752  	356.459  	-446.119  	-1	1	1
540	3	341.521  	351.098  	-423.48  	-1	1	1
541	3	311.592  	346.368  	-425.992  	-1	1	1
542	3	300.523  	347.516  	-454.568  	-1	1	1
543	3	316.771  	358.136  	-477.967  	-1	1	1
544	3	317.051  	383.337  	-494.971  	-1	1	1
545	3	290.939  	398.304  	-486.795  	-1	1	1
546	3	262.771  	406.765  	-474.295  	-1	1	1
547	3	236.981  	402.376  	-456.631  	-1	1	1
548	3	209.336  	400.261  	-443.169  	-1	1	1
549	3	193.348  	375.596  	-434.143  	-1	1	1
550	3	199.944  	346.522  	-443.36  	-1	1	1
551	3	200.473  	345.358  	-473.024  	-1	1	1
552	3	210.383  	349.23  	-502.026  	-1	1	1
553	3	224.105  	371.949  	-517.95  	-1	1	1
554	3	243.702  	396.208  	-517.921  	-1	1	1
555	3	262.295  	419.913  	-512.24  	-1	1	1
556	3	256.427  	447.523  	-501.62  	-1	1	1
557	3	245.919  	475.532  	-501.515  	-1	1	1
558	3	229.968  	500.324  	-507.511  	-1	1	1
559	3	213.632  	514.136  	-529.515  	-1	1	1
560	3	195.317  	512.442  	-553.657  	-1	1	1
561	3	168.786  	502.401  	-565.577  	-1	1	1
562	3	148.743  	477.488  	-569.326  	-1	1	1
563	3	130.338  	454.772  	-580.253  	-1	1	1
564	3	125.595  	426.35  	-590.881  	-1	1	1
565	3	115.833  	414.814  	-617.213  	-1	1	1
566	3	100.154  	419.571  	-642.375  	-1	1	1
567	3	75.8294  	423.034  	-660.213  	-1	1	1
568	3	48.2427  	428.146  	-671.028  	-1	1	1
569	3	17.5763  	433.716  	-679.737  	-1	1	1
570	3	-6.57423  	439.606  	-697.116  	-1	1	1
571	3	-12.0495  	439.56  	-726.614  	-1	1	1
572	3	-16.3806  	429.557  	-754.896  	-1	1	1
573	3	4.25304  	411.101  	-769.334  	-1	1	1
574	3	18.1722  	384.278  	-767.945  	-1	1	1
575	3	25.3098  	364.315  	-745.971  	-1	1	1
576	3	32.2419  	347.149  	-722.294  	-1	1	1
577	3	25.1333  	338.49  	-693.7  	-1	1	1
578	3	16.0577  	319.045  	-672.29  	-1	1	1
579	3	14.3888  	294.974  	-653.673  	-1	1	1
580	3	11.1933  	266.058  	-643.151  	-1	1	1
581	3	7.19906  	249.102  	-617.871  	-1	1	1
582	3	16.1817  	253.173  	-588.586  	-1	1	1
583	3	42.3481  	260.277  	-572.939  	-1	1	1
584	3	65.3316  	255.863  	-552.168  	-1	1	1
585	3	71.6389  	246.297  	-523.986  	-1	1	1
586	3	56.0021  	249.851  	-496.705  	-1	1	1
587	3	43.3052  	268.146  	-475.384  	-1	1	1
588	3	37.5215  	280.379  	-448.062  	-1	1	1
589	3	39.8787  	290.121  	-419.857  	-1	1	1
590	3	51.5079  	297.032  	-393.212  	-1	1	1
591	3	57.488  	298.96  	-363.461  	-1	1	1
592	3	62.2343  	318.132  	-339.494  	-1	1	1
593	3	57.977  	348.218  	-330.842  	-1	1	1
594	3	54.9782  	377.675  	-326.883  	-1	1	1
595	3	70.0335  	403.973  	-334.387  	-1	1	1
596	3	94.9558  	414.293  	-349.547  	-1	1	1
597	3	122.073  	402.936  	-359.781  	-1	1	1
598	3	146.349  	385.828  	-351.227  	-1	1	1
599	3	168.363  	368.425  	-338.815  	-1	1	1
600	3	189.823  	348.44  	-327.325  	-1	1	1
601	3	210.825  	325.512  	-332.731  	-1	1	1
602	3	222.143  	298.832  	-342.555  	-1	1	1
603	3	227.999  	274.464  	-361.607  	-1	1	1
604	3	216.946  	271.109  	-388.951  	-1	1	1
605	3	194.962  	269.077  	-409.345  	-1	1	1
606	3	176.077  	275.629  	-433.05  	-1	1	1
607	3	161.256  	276.328  	-459.875  	-1	1	1
608	3	150.462  	278.342  	-488.6  	-1	1	1
609	3	152.215  	263.941  	-515.636  	-1	1	1
610	3	176.267  	247.382  	-508.706  	-1	1	1
611	3	185.017  	237.757  	-480.625  	-1	1	1
612	3	185.799  	229.938  	-450.404  	-1	1	1
613	3	169.401  	219.004  	-425.388  	-1	1	1
614	3	149.471  	197.472  	-417.015  	-1	1	1
615	3	135.473  	170.958  	-408.939  	-1	1	1
616	3	129.824  	140.781  	-404.947  	-1	1	1
617	3	126.17  	112.94  	-416.47  	-1	1	1
618	3	137.88  	85.075  	-425.645  	-1	1	1
619	3	150.244  	59.3291  	-436.491  	-1	1	1
620	3	174.193  	41.5912  	-445.301  	-1	1	1
621	3	199.995  	27.3203  	-452.929  	-1	1	1
622	3	224.96  	14.3215  	-463.67  	-1	1	1
623	3	244.887  	13.1053  	-486.33  	-1	1	1
624	3	269.609  	13.1175  	-503.207  	-1	1	1
625	3	298.779  	2.09177  	-502.415  	-1	1	1
626	3	319.082  	-10.947  	-482.252  	-1	1	1
627	3	296.886  	-9.41183  	-463.254  	-1	1	1
628	3	268.722  	-12.6646  	-452.028  	-1	1	1
629	3	240.645  	-21.3125  	-443.345  	-1	1	1
630	3	258.527  	-37.924  	-424.616  	-1	1	1
631	3	287.968  	-37.7814  	-422.535  	-1	1	1
632	3	315.834  	-50.5822  	-424.077  	-1	1	1
633	3	341.781  	-58.0927  	-410.145  	-1	1	1
634	3	354.466  	-60.9507  	-383.525  	-1	1	1
635	3	353.22  	-39.121  	-362.574  	-1	1	1
636	3	354.684  	-10.2468  	-355.095  	-1	1	1
637	3	360.17  	19.0418  	-355.416  	-1	1	1
638	3	382.926  	39.6358  	-348.793  	-1	1	1
639	3	392.485  	21.0397  	-371.78  	-1	1	1
640	3	393.59  	-1.74786  	-390.852  	-1	1	1
641	3	395.226  	-22.8818  	-413.901  	-1	1	1
642	3	408.628  	-48.7497  	-426.675  	-1	1	1
643	3	428.371  	-69.5407  	-436.046  	-1	1	1
644	3	437.826  	-91.4984  	-417.36  	-1	1	1
645	3	427.748  	-81.0657  	-390.618  	-1	1	1
646	3	415.286  	-58.0824  	-375.276  	-1	1	1
647	3	423.186  	-28.6158  	-380.727  	-1	1	1
648	3	444.129  	-11.0563  	-395.354  	-1	1	1
649	3	467.127  	-6.20569  	-413.497  	-1	1	1
650	3	495.339  	5.09274  	-410.486  	-1	1	1
651	3	505.778  	14.4895  	-383.835  	-1	1	1
652	3	522.26  	7.56373  	-358.752  	-1	1	1
653	3	533.92  	5.13942  	-331.055  	-1	1	1
654	3	561.754  	9.18995  	-318.69  	-1	1	1
655	3	575.317  	29.4075  	-336.601  	-1	1	1
656	3	578.91  	42.5641  	-363.15  	-1	1	1
657	3	570.143  	47.0614  	-391.951  	-1	1	1
658	3	546.365  	57.2829  	-409.907  	-1	1	1
659	3	515.309  	55.8503  	-418.01  	-1	1	1
660	3	526.983  	29.1698  	-426.12  	-1	1	1
661	3	549.444  	8.07477  	-429.309  	-1	1	1
662	3	567.009  	-11.5225  	-414.53  	-1	1	1
663	3	548.864  	-26.4447  	-395.553  	-1	1	1
664	3	522.85  	-41.9505  	-405.907  	-1	1	1
665	3	496.903  	-52.2428  	-416.359  	-1	1	1
666	3	468.311  	-60.439  	-405.188  	-1	1	1
667	3	461.675  	-56.6959  	-376.754  	-1	1	1
668	3	484.152  	-43.1962  	-359.445  	-1	1	1
669	3	510.918  	-31.3541  	-355.284  	-1	1	1
670	3	540.913  	-31.2013  	-356.769  	-1	1	1
671	3	567.476  	-30.3001  	-341.958  	-1	1	1
672	3	578.826  	-29.8263  	-312.892  	-1	1	1
673	3	558.498  	-36.6398  	-291.786  	-1	1	1
674	3	533.197  	-39.4247  	-274.102  	-1	1	1
675	3	502.115  	-40.8589  	-267.582  	-1	1	1
676	3	478.377  	-30.7739  	-283.367  	-1	1	1
677	3	462.96  	-12.4348  	-303.175  	-1	1	1
678	3	457.148  	9.54951  	-323.466  	-1	1	1
679	3	465.362  	24.5886  	-348.113  	-1	1	1
680	3	473.835  	39.4857  	-372.998  	-1	1	1
681	3	489.214  	59.6265  	-388.561  	-1	1	1
682	3	508.557  	82.8051  	-394.544  	-1	1	1
683	3	530.431  	102.09  	-404.949  	-1	1	1
684	3	551.219  	106.891  	-430.748  	-1	1	1