# LAMMPS data file for replicating chromosomes formed of rigid body monomers

8612		atoms
8		atom types
6050		ellipsoids
6001		bonds
2		bond types
12002		angles
4		angle types


-1140	1140	xlo xhi
-1140	1140	ylo yhi
-1140	1140	zlo zhi

Atoms # atom-ID atom-type x y z molecule-ID ellipsoid-flag density

1	5	2.24395  	849.071  	148.1  	-1	1	1
2	3	31.1292  	855.627  	156.543  	-1	1	1
3	3	61.3191  	850.925  	157.88  	-1	1	1
4	3	91.6142  	850.018  	166.44  	-1	1	1
5	3	121.571  	855.396  	168.719  	-1	1	1
6	3	149.598  	853.541  	180.667  	-1	1	1
7	3	178.948  	847.156  	185.542  	-1	1	1
8	3	202.605  	829.164  	189.966  	-1	1	1
9	3	227.04  	813.116  	194.812  	-1	1	1
10	3	255.386  	798.538  	200.595  	-1	1	1
11	3	270.05  	782.518  	220.795  	-1	1	1
12	3	286.604  	769.092  	244.279  	-1	1	1
13	3	301.057  	752.002  	265.985  	-1	1	1
14	3	316.9  	735.394  	287.455  	-1	1	1
15	3	317.512  	717.044  	313.011  	-1	1	1
16	3	325.153  	694.639  	332.652  	-1	1	1
17	3	325.245  	670.339  	352.022  	-1	1	1
18	3	328.158  	645.199  	367.775  	-1	1	1
19	3	330.817  	616.639  	378.087  	-1	1	1
20	3	325.656  	587.226  	385.338  	-1	1	1
21	3	307.93  	562.086  	383.872  	-1	1	1
22	3	285.878  	542.093  	388.116  	-1	1	1
23	3	265.713  	518.405  	382.579  	-1	1	1
24	3	251.625  	500.892  	360.364  	-1	1	1
25	3	247.318  	475.275  	345.398  	-1	1	1
26	3	239.432  	456.114  	322.613  	-1	1	1
27	3	225.395  	454.927  	294.054  	-1	1	1
28	3	217.716  	457.272  	265.072  	-1	1	1
29	3	200.837  	452.104  	238.54  	-1	1	1
30	3	193.891  	450.715  	209.05  	-1	1	1
31	3	181.25  	453.836  	181.306  	-1	1	1
32	3	175.221  	469.403  	154.742  	-1	1	1
33	3	184.262  	491.715  	134.947  	-1	1	1
34	3	204.049  	512.218  	124.707  	-1	1	1
35	3	203.323  	540.277  	108.886  	-1	1	1
36	3	204.484  	569.506  	99.4049  	-1	1	1
37	3	208.445  	600.084  	96.3761  	-1	1	1
38	3	217.836  	630.353  	94.8712  	-1	1	1
39	3	236.617  	653.414  	96.3001  	-1	1	1
40	3	260.043  	672.509  	88.1166  	-1	1	1
41	3	287.479  	686.66  	91.2795  	-1	1	1
42	3	315.765  	698.078  	83.7901  	-1	1	1
43	3	345.987  	703.36  	86.1161  	-1	1	1
44	3	368.54  	720.015  	97.4453  	-1	1	1
45	3	394.525  	729.647  	109.04  	-1	1	1
46	3	423.265  	729.141  	120.297  	-1	1	1
47	3	450.097  	734.275  	132.825  	-1	1	1
48	3	471.05  	733.908  	155.727  	-1	1	1
49	3	481.571  	728.383  	185.993  	-1	1	1
50	3	478.447  	721.691  	215.218  	-1	1	1
51	3	481.174  	696.914  	233.392  	-1	1	1
52	3	484.757  	677.088  	256.6  	-1	1	1
53	3	490.543  	661.199  	284.663  	-1	1	1
54	3	501.623  	650.692  	313.076  	-1	1	1
55	3	517.295  	641.123  	338.455  	-1	1	1
56	3	529.013  	615.617  	352.634  	-1	1	1
57	3	531.44  	588.088  	365.226  	-1	1	1
58	3	531.078  	564.086  	383.605  	-1	1	1
59	3	525.325  	539.643  	401.515  	-1	1	1
60	3	511.995  	514.416  	410.515  	-1	1	1
61	3	493.972  	490.26  	410.873  	-1	1	1
62	3	474.748  	466.613  	413.806  	-1	1	1
63	3	461.883  	443.455  	398.021  	-1	1	1
64	3	440.918  	426.776  	383.536  	-1	1	1
65	3	417.492  	412.603  	369.117  	-1	1	1
66	3	394.417  	413.945  	349.691  	-1	1	1
67	3	380.156  	425.595  	326.505  	-1	1	1
68	3	378.42  	443.349  	300.36  	-1	1	1
69	3	377.936  	464.117  	277.05  	-1	1	1
70	3	367.796  	472.641  	249.466  	-1	1	1
71	3	363.245  	480.313  	220.071  	-1	1	1
72	3	359.609  	502.097  	198.916  	-1	1	1
73	3	360.996  	531.172  	190.454  	-1	1	1
74	3	349.279  	558.992  	185.177  	-1	1	1
75	3	339.47  	586.56  	184.793  	-1	1	1
76	3	340.959  	617.624  	182.618  	-1	1	1
77	3	346.24  	646.517  	170.655  	-1	1	1
78	3	357.981  	671.932  	159.285  	-1	1	1
79	3	371.104  	697.583  	148.442  	-1	1	1
80	3	364.368  	724.86  	137.809  	-1	1	1
81	3	362.436  	752.928  	126.648  	-1	1	1
82	3	361.277  	777.992  	108.08  	-1	1	1
83	3	348.764  	781.665  	80.3208  	-1	1	1
84	3	337.631  	782.276  	51.2226  	-1	1	1
85	3	323.163  	777.178  	25.2051  	-1	1	1
86	3	309.936  	770.673  	-2.0231  	-1	1	1
87	3	291.279  	763.354  	-24.8731  	-1	1	1
88	3	283.481  	741.431  	-44.8754  	-1	1	1
89	3	270.08  	720.607  	-61.5052  	-1	1	1
90	3	258.618  	705.046  	-85.4877  	-1	1	1
91	3	239.92  	687.352  	-102.739  	-1	1	1
92	3	220.588  	664.85  	-113.478  	-1	1	1
93	3	208.184  	644.206  	-132.433  	-1	1	1
94	3	190.192  	636.598  	-156.016  	-1	1	1
95	3	184.233  	617.422  	-180.402  	-1	1	1
96	3	182.621  	609.897  	-210.584  	-1	1	1
97	3	176.608  	600.958  	-240.011  	-1	1	1
98	3	165.395  	585.422  	-264.394  	-1	1	1
99	3	153.747  	582.123  	-293.367  	-1	1	1
100	3	133.316  	589.394  	-316.16  	-1	1	1
101	3	127.077  	613.376  	-333.485  	-1	1	1
102	3	119.566  	639.787  	-348.961  	-1	1	1
103	3	136.955  	663.79  	-351.893  	-1	1	1
104	3	157.118  	686.57  	-350.162  	-1	1	1
105	3	180.892  	704.573  	-345.102  	-1	1	1
106	3	208.438  	702.196  	-332.901  	-1	1	1
107	3	227.377  	715.881  	-312.996  	-1	1	1
108	3	248.483  	728.463  	-296.649  	-1	1	1
109	3	260.824  	741.851  	-272.196  	-1	1	1
110	3	278.212  	749.753  	-248.613  	-1	1	1
111	3	296.016  	763.301  	-227.991  	-1	1	1
112	3	287.361  	786.134  	-209.532  	-1	1	1
113	3	285.937  	806.904  	-187.25  	-1	1	1
114	3	283.398  	809.647  	-156.069  	-1	1	1
115	3	294.564  	816.257  	-127.205  	-1	1	1
116	3	308.502  	821.432  	-100.77  	-1	1	1
117	3	313.94  	828.181  	-70.9787  	-1	1	1
118	3	324.436  	834.108  	-42.5257  	-1	1	1
119	3	332.255  	822.605  	-14.1769  	-1	1	1
120	3	341.473  	818.234  	14.4159  	-1	1	1
121	3	361.188  	810.89  	35.606  	-1	1	1
122	3	385.948  	795.84  	39.4562  	-1	1	1
123	3	403.28  	771.479  	45.7506  	-1	1	1
124	3	422.982  	752.811  	59.2874  	-1	1	1
125	3	449.663  	741.462  	70.1389  	-1	1	1
126	3	474.347  	731.187  	83.5375  	-1	1	1
127	3	500.656  	721.41  	93.5534  	-1	1	1
128	3	523.558  	703.432  	86.0366  	-1	1	1
129	3	532.607  	678.108  	70.5841  	-1	1	1
130	3	532.395  	651.76  	54.5593  	-1	1	1
131	3	539.106  	636.531  	28.3022  	-1	1	1
132	3	550.422  	636.992  	-1.13937  	-1	1	1
133	3	551.615  	636.66  	-32.3665  	-1	1	1
134	3	553.256  	634.89  	-62.1302  	-1	1	1
135	3	556.023  	623.693  	-89.5895  	-1	1	1
136	3	569.769  	617.709  	-116.645  	-1	1	1
137	3	571.006  	602.549  	-142.221  	-1	1	1
138	3	558.135  	595.578  	-169.804  	-1	1	1
139	3	551.343  	582.449  	-196.2  	-1	1	1
140	3	535.145  	579.835  	-222.28  	-1	1	1
141	3	511.482  	576.681  	-242.139  	-1	1	1
142	3	488.599  	570.47  	-262.467  	-1	1	1
143	3	465.999  	553.609  	-275.146  	-1	1	1
144	3	444.402  	533.438  	-285.102  	-1	1	1
145	3	424.731  	511.241  	-293.273  	-1	1	1
146	3	412.28  	488.398  	-308.554  	-1	1	1
147	3	410.387  	457.72  	-307.424  	-1	1	1
148	3	415.458  	430.157  	-298.524  	-1	1	1
149	3	418.212  	404.17  	-283.943  	-1	1	1
150	3	430.269  	376.499  	-281.725  	-1	1	1
151	3	446.63  	351.985  	-290.874  	-1	1	1
152	3	467.301  	330.693  	-294.445  	-1	1	1
153	3	495.531  	318.045  	-291.173  	-1	1	1
154	3	525.591  	313.957  	-290.191  	-1	1	1
155	3	555.561  	309.892  	-289.498  	-1	1	1
156	3	585.27  	301.885  	-293.133  	-1	1	1
157	3	614.449  	304.981  	-297.867  	-1	1	1
158	3	641.843  	317.552  	-296.385  	-1	1	1
159	3	668.974  	328.389  	-290.603  	-1	1	1
160	3	678.843  	357.197  	-287.887  	-1	1	1
161	3	687.166  	385.885  	-281.404  	-1	1	1
162	3	698.724  	412.728  	-273.806  	-1	1	1
163	3	704.195  	438.768  	-259.048  	-1	1	1
164	3	704.713  	459.499  	-236.427  	-1	1	1
165	3	700.463  	473.995  	-209.723  	-1	1	1
166	3	692.353  	497.458  	-192.805  	-1	1	1
167	3	669.877  	513.089  	-178.959  	-1	1	1
168	3	646.096  	524.888  	-162.486  	-1	1	1
169	3	622.553  	539.171  	-149.149  	-1	1	1
170	3	598.486  	539.394  	-130.439  	-1	1	1
171	3	578.676  	531.854  	-107.742  	-1	1	1
172	3	571.394  	518.632  	-80.3122  	-1	1	1
173	3	552.395  	502.607  	-59.0991  	-1	1	1
174	3	550.185  	485.267  	-33.4138  	-1	1	1
175	3	555.104  	469.448  	-8.13704  	-1	1	1
176	3	565.655  	454.771  	17.4736  	-1	1	1
177	3	575.378  	443.068  	43.6641  	-1	1	1
178	3	591.296  	447.213  	68.8258  	-1	1	1
179	3	594.912  	450.37  	99.4716  	-1	1	1
180	3	592.373  	444.672  	129.81  	-1	1	1
181	3	608.452  	441.079  	156.139  	-1	1	1
182	3	620.559  	435.835  	182.805  	-1	1	1
183	3	640.553  	441.292  	205.498  	-1	1	1
184	3	662.535  	463.21  	208.516  	-1	1	1
185	3	676.83  	488.769  	216.047  	-1	1	1
186	3	672.352  	518.799  	209.342  	-1	1	1
187	3	660.011  	547.408  	201.995  	-1	1	1
188	3	639.509  	570.788  	199.973  	-1	1	1
189	3	618.305  	591.444  	208.116  	-1	1	1
190	3	592.653  	606.175  	210.772  	-1	1	1
191	3	562.882  	611.73  	215.566  	-1	1	1
192	3	537.555  	628.05  	212.851  	-1	1	1
193	3	511.183  	642.265  	208.043  	-1	1	1
194	3	481.022  	642.307  	207.81  	-1	1	1
195	3	453.73  	652.036  	212.846  	-1	1	1
196	3	424.931  	660.759  	212.277  	-1	1	1
197	3	399.002  	659.948  	227.237  	-1	1	1
198	3	377.633  	659.84  	250.562  	-1	1	1
199	3	358.357  	655.035  	273.664  	-1	1	1
200	3	347.552  	641.373  	298.213  	-1	1	1
201	3	346.196  	612.847  	311.177  	-1	1	1
202	3	364.695  	587.935  	310.043  	-1	1	1
203	3	381.417  	562.136  	305.706  	-1	1	1
204	3	392.878  	534.627  	297.956  	-1	1	1
205	3	401.393  	508.079  	284.501  	-1	1	1
206	3	413.154  	486.157  	266.083  	-1	1	1
207	3	433.031  	465.547  	255.952  	-1	1	1
208	3	457.45  	448.536  	260.348  	-1	1	1
209	3	471.115  	422.367  	266.603  	-1	1	1
210	3	487.694  	396.619  	270.303  	-1	1	1
211	3	502.544  	369.48  	275.527  	-1	1	1
212	3	527.056  	353.943  	265.046  	-1	1	1
213	3	551.559  	347.645  	247.469  	-1	1	1
214	3	578.92  	360.61  	240.144  	-1	1	1
215	3	606.526  	373.305  	234.371  	-1	1	1
216	3	635.937  	382.827  	231.219  	-1	1	1
217	3	667.118  	379.709  	236.229  	-1	1	1
218	3	695.261  	366.514  	238.984  	-1	1	1
219	3	716.91  	352.858  	253.321  	-1	1	1
220	3	739.622  	343.455  	273.913  	-1	1	1
221	3	745.149  	339.861  	304.925  	-1	1	1
222	3	731.071  	339.585  	332.551  	-1	1	1
223	3	716.472  	335.024  	359.158  	-1	1	1
224	3	702.02  	345.867  	385.185  	-1	1	1
225	3	680.342  	354.94  	405.625  	-1	1	1
226	3	655.724  	367.273  	418.058  	-1	1	1
227	3	640.617  	389.314  	430.961  	-1	1	1
228	3	626.092  	416.644  	432.337  	-1	1	1
229	3	610.021  	436.013  	450.407  	-1	1	1
230	3	585.192  	450.702  	462.169  	-1	1	1
231	3	559.665  	457.306  	476.014  	-1	1	1
232	3	542.878  	468.035  	499.468  	-1	1	1
233	3	527.484  	482.783  	521.221  	-1	1	1
234	3	509.55  	491.867  	545.578  	-1	1	1
235	3	485.669  	492.268  	565.363  	-1	1	1
236	3	458.047  	493.69  	579.111  	-1	1	1
237	3	431.866  	493.147  	593.381  	-1	1	1
238	3	405.116  	486.345  	605.72  	-1	1	1
239	3	378.008  	479.246  	617.324  	-1	1	1
240	3	350.334  	473.136  	625.067  	-1	1	1
241	3	322.954  	460.573  	620.191  	-1	1	1
242	3	297.53  	446.011  	610.504  	-1	1	1
243	3	270.927  	431.621  	600.901  	-1	1	1
244	3	249.045  	410.976  	600.504  	-1	1	1
245	3	229.66  	388.913  	594.453  	-1	1	1
246	3	213.772  	364.689  	582.84  	-1	1	1
247	3	191.822  	342.943  	575.731  	-1	1	1
248	3	179.194  	315.022  	568.331  	-1	1	1
249	3	167.704  	291.64  	551.285  	-1	1	1
250	3	158.487  	278.644  	525.718  	-1	1	1
251	3	161.656  	275.501  	494.671  	-1	1	1
252	3	171.41  	279.822  	465.671  	-1	1	1
253	3	173.962  	282.328  	435.972  	-1	1	1
254	3	180.911  	282.378  	406.239  	-1	1	1
255	3	186.969  	289.069  	377.675  	-1	1	1
256	3	189.365  	294.86  	347.612  	-1	1	1
257	3	188.895  	310.387  	321.247  	-1	1	1
258	3	191.311  	326.038  	295.765  	-1	1	1
259	3	194.875  	352.555  	282.06  	-1	1	1
260	3	206.926  	380.201  	277.674  	-1	1	1
261	3	228.903  	396.232  	262.892  	-1	1	1
262	3	256.491  	407.746  	269.431  	-1	1	1
263	3	273.023  	431.769  	279.012  	-1	1	1
264	3	289.339  	456.589  	287.506  	-1	1	1
265	3	311.15  	469.29  	303.252  	-1	1	1
266	3	336.039  	483.883  	313.447  	-1	1	1
267	3	351.771  	499.481  	333.549  	-1	1	1
268	3	372.402  	508.913  	353.527  	-1	1	1
269	3	384.284  	509.938  	379.852  	-1	1	1
270	3	402.976  	512.742  	403.455  	-1	1	1
271	3	419.77  	520.422  	428.795  	-1	1	1
272	3	439.216  	503.17  	445.173  	-1	1	1
273	3	461.949  	484.697  	453.734  	-1	1	1
274	3	478.513  	471.495  	475.366  	-1	1	1
275	3	487.923  	445.296  	488.621  	-1	1	1
276	3	507.416  	426.734  	501.279  	-1	1	1
277	3	536.808  	420.521  	504.806  	-1	1	1
278	3	566.815  	416.853  	500.431  	-1	1	1
279	3	595.194  	404.335  	491.754  	-1	1	1
280	3	620.7  	390.634  	481.472  	-1	1	1
281	3	643.235  	371.437  	472.793  	-1	1	1
282	3	661.463  	347.259  	477.877  	-1	1	1
283	3	670.964  	318.243  	478.581  	-1	1	1
284	3	693.703  	299.952  	468.52  	-1	1	1
285	3	707.715  	280.031  	450.042  	-1	1	1
286	3	722.408  	277.058  	423.863  	-1	1	1
287	3	730.114  	268.033  	396.065  	-1	1	1
288	3	739.623  	268.2  	367.301  	-1	1	1
289	3	754.009  	272.435  	339.462  	-1	1	1
290	3	766.976  	279.227  	313.082  	-1	1	1
291	3	781.232  	276.272  	286.327  	-1	1	1
292	3	789.342  	270.614  	256.787  	-1	1	1
293	3	790.641  	261.648  	226.941  	-1	1	1
294	3	787.866  	250.834  	198.772  	-1	1	1
295	3	772.501  	239.001  	175.711  	-1	1	1
296	3	750.36  	226.267  	159.183  	-1	1	1
297	3	732.151  	202.558  	159.193  	-1	1	1
298	3	730.663  	172.792  	156.895  	-1	1	1
299	3	724.158  	142.554  	158.214  	-1	1	1
300	3	707.489  	117.296  	156.404  	-1	1	1
301	3	695.929  	90.2255  	145.763  	-1	1	1
302	3	673.375  	75.4962  	130.66  	-1	1	1
303	3	656.967  	51.9721  	142.527  	-1	1	1
304	3	642.02  	35.2794  	162.864  	-1	1	1
305	3	631.136  	14.4178  	183.785  	-1	1	1
306	3	622.796  	0.606169  	209.152  	-1	1	1
307	3	626.95  	0.832231  	239.913  	-1	1	1
308	3	626.032  	2.42577  	270.781  	-1	1	1
309	3	625.585  	8.51935  	300.681  	-1	1	1
310	3	636.981  	20.2232  	326.858  	-1	1	1
311	3	659.935  	28.3367  	345.356  	-1	1	1
312	3	686.249  	26.6374  	360.002  	-1	1	1
313	3	717.454  	21.1794  	365.425  	-1	1	1
314	3	742.315  	2.47912  	367.28  	-1	1	1
315	3	760.802  	-21.8916  	363.703  	-1	1	1
316	3	788.427  	-31.275  	355.019  	-1	1	1
317	3	807.205  	-41.0857  	333.166  	-1	1	1
318	3	815.333  	-42.4923  	302.93  	-1	1	1
319	3	833.739  	-41.4552  	277.518  	-1	1	1
320	3	844.755  	-43.3853  	249.109  	-1	1	1
321	3	851.765  	-48.84  	220.305  	-1	1	1
322	3	858.971  	-58.3447  	191.954  	-1	1	1
323	3	857.604  	-63.1591  	161.781  	-1	1	1
324	3	845.113  	-72.6801  	133.998  	-1	1	1
325	3	823.814  	-75.9348  	112.309  	-1	1	1
326	3	802.509  	-63.7291  	94.0076  	-1	1	1
327	3	781.446  	-49.9281  	77.6181  	-1	1	1
328	3	757.595  	-32.0422  	83.9074  	-1	1	1
329	3	735.505  	-25.0972  	104.241  	-1	1	1
330	3	713.967  	-22.1658  	125.657  	-1	1	1
331	3	699.222  	-21.9205  	153.036  	-1	1	1
332	3	699.193  	-20.6872  	184.13  	-1	1	1
333	3	693.825  	-21.8538  	214.917  	-1	1	1
334	3	690.759  	-17.5277  	245.376  	-1	1	1
335	3	682.898  	-20.7709  	274.882  	-1	1	1
336	3	665.029  	-8.46805  	296.439  	-1	1	1
337	3	651.477  	-14.1966  	325.453  	-1	1	1
338	3	633.47  	-19.4992  	351.126  	-1	1	1
339	3	621.902  	-8.65078  	377.244  	-1	1	1
340	3	602.177  	4.3536  	398.528  	-1	1	1
341	3	584.759  	-3.54544  	421.615  	-1	1	1
342	3	580.857  	-18.8659  	447.468  	-1	1	1
343	3	574.246  	-43.2035  	466.546  	-1	1	1
344	3	558.243  	-65.2174  	479.501  	-1	1	1
345	3	531.279  	-76.219  	488.285  	-1	1	1
346	3	503.593  	-89.705  	494.492  	-1	1	1
347	3	475.182  	-96.9882  	500.034  	-1	1	1
348	3	452.919  	-115.958  	492.085  	-1	1	1
349	3	442.727  	-142.48  	480.615  	-1	1	1
350	3	436.213  	-166.28  	464.158  	-1	1	1
351	3	444.452  	-191.011  	447.515  	-1	1	1
352	3	463.383  	-213.445  	437.855  	-1	1	1
353	3	489.236  	-228.853  	431.494  	-1	1	1
354	3	517.91  	-236.514  	420.907  	-1	1	1
355	3	539.82  	-254.715  	413.369  	-1	1	1
356	3	557.558  	-275.752  	402.373  	-1	1	1
357	3	579.735  	-292.861  	391.329  	-1	1	1
358	3	599.966  	-308.141  	375.362  	-1	1	1
359	3	619.29  	-324.618  	356.844  	-1	1	1
360	3	639.252  	-337.566  	337.572  	-1	1	1
361	3	663.683  	-349.333  	323.491  	-1	1	1
362	3	687.932  	-348.183  	304.996  	-1	1	1
363	3	714.183  	-345.601  	290.138  	-1	1	1
364	3	736.381  	-342.173  	268.423  	-1	1	1
365	3	751.656  	-324.222  	247.119  	-1	1	1
366	3	764.802  	-302.455  	230.476  	-1	1	1
367	3	778.292  	-285.856  	208.006  	-1	1	1
368	3	794.12  	-260.996  	197.037  	-1	1	1
369	3	796.123  	-234.224  	181.707  	-1	1	1
370	3	800.897  	-207.782  	166.76  	-1	1	1
371	3	793.587  	-180.668  	154.488  	-1	1	1
372	3	782.821  	-152.464  	148.22  	-1	1	1
373	3	771.604  	-137.604  	124.786  	-1	1	1
374	3	759.172  	-119.82  	102.741  	-1	1	1
375	3	738.067  	-102.355  	87.9068  	-1	1	1
376	3	718.496  	-79.6539  	83.7698  	-1	1	1
377	3	700.936  	-57.7554  	73.5705  	-1	1	1
378	3	686.58  	-31.8579  	67.033  	-1	1	1
379	3	676.135  	-15.2104  	44.4837  	-1	1	1
380	3	662.855  	-2.41298  	20.4429  	-1	1	1
381	3	652.536  	9.15189  	-6.63793  	-1	1	1
382	3	651.871  	13.2946  	-37.9238  	-1	1	1
383	3	652.961  	21.5683  	-66.3785  	-1	1	1
384	3	658.601  	33.1383  	-94.7135  	-1	1	1
385	3	678.27  	23.9205  	-115.82  	-1	1	1
386	3	700.632  	26.4076  	-136.064  	-1	1	1
387	3	728.116  	24.6756  	-147.968  	-1	1	1
388	3	747.326  	9.16609  	-165.611  	-1	1	1
389	3	770.819  	-3.70886  	-180.831  	-1	1	1
390	3	795.991  	-13.5199  	-194.495  	-1	1	1
391	3	809.362  	-38.1057  	-206.241  	-1	1	1
392	3	809.926  	-68.3207  	-206.617  	-1	1	1
393	3	815.827  	-98.1607  	-209.557  	-1	1	1
394	3	820.365  	-127.615  	-204.714  	-1	1	1
395	3	826.879  	-156.05  	-212.489  	-1	1	1
396	3	826.275  	-184.705  	-222.374  	-1	1	1
397	3	824.283  	-216.541  	-223.978  	-1	1	1
398	3	812.896  	-241.258  	-235.883  	-1	1	1
399	3	795.716  	-265.841  	-242.677  	-1	1	1
400	3	769.664  	-282.294  	-238.408  	-1	1	1
401	3	738.475  	-282.744  	-238.659  	-1	1	1
402	3	706.923  	-282.839  	-236.368  	-1	1	1
403	3	679.974  	-269.513  	-234.255  	-1	1	1
404	3	654.451  	-254.418  	-240.063  	-1	1	1
405	3	627.774  	-237.801  	-238.514  	-1	1	1
406	3	610.664  	-211.962  	-235.56  	-1	1	1
407	3	593.972  	-186.362  	-235.294  	-1	1	1
408	3	578.655  	-161.264  	-228.416  	-1	1	1
409	3	565.696  	-135.934  	-218.446  	-1	1	1
410	3	558.452  	-107.813  	-205.93  	-1	1	1
411	3	545.611  	-81.7579  	-198.323  	-1	1	1
412	3	540.577  	-57.1068  	-178.815  	-1	1	1
413	3	540.456  	-41.3064  	-151.118  	-1	1	1
414	3	535.331  	-23.2442  	-127.357  	-1	1	1
415	3	527.973  	5.47932  	-118.012  	-1	1	1
416	3	517.437  	32.7889  	-107.955  	-1	1	1
417	3	493.146  	47.8612  	-99.4942  	-1	1	1
418	3	466.587  	49.8277  	-86.3493  	-1	1	1
419	3	436.962  	39.9989  	-80.9429  	-1	1	1
420	3	409.566  	29.4086  	-79.856  	-1	1	1
421	3	385.029  	14.3102  	-89.1496  	-1	1	1
422	3	357.036  	4.51152  	-96.9091  	-1	1	1
423	3	328.029  	-1.03008  	-104.17  	-1	1	1
424	3	306.01  	-16.4923  	-119.532  	-1	1	1
425	3	292.445  	-35.6188  	-139.678  	-1	1	1
426	3	288.613  	-59.1845  	-157.916  	-1	1	1
427	3	282.493  	-83.9401  	-172.441  	-1	1	1
428	3	273.095  	-112.369  	-179.673  	-1	1	1
429	3	272.066  	-139.765  	-194.418  	-1	1	1
430	3	281.994  	-159.557  	-214.834  	-1	1	1
431	3	290.038  	-181.175  	-235.399  	-1	1	1
432	3	293.579  	-196.002  	-264.146  	-1	1	1
433	3	290.863  	-210.904  	-291.406  	-1	1	1
434	3	278.036  	-228.521  	-313.918  	-1	1	1
435	3	270.456  	-236.053  	-342.298  	-1	1	1
436	3	274.194  	-235.318  	-373.205  	-1	1	1
437	3	288.908  	-233.832  	-398.91  	-1	1	1
438	3	306.914  	-220.773  	-419.839  	-1	1	1
439	3	322.442  	-200.267  	-438.001  	-1	1	1
440	3	342.74  	-185.085  	-453.889  	-1	1	1
441	3	371.119  	-174.014  	-446.808  	-1	1	1
442	3	398.506  	-159.95  	-439.012  	-1	1	1
443	3	416.791  	-147.869  	-417.451  	-1	1	1
444	3	431.389  	-136.154  	-392.761  	-1	1	1
445	3	429.411  	-124.343  	-364.728  	-1	1	1
446	3	431.009  	-112.356  	-336.594  	-1	1	1
447	3	441.608  	-93.4253  	-313.935  	-1	1	1
448	3	465.547  	-76.0403  	-305.22  	-1	1	1
449	3	488.682  	-67.4561  	-289.391  	-1	1	1
450	3	512.165  	-59.0942  	-270.9  	-1	1	1
451	3	521.19  	-37.9101  	-253.233  	-1	1	1
452	3	532.709  	-23.5226  	-229.095  	-1	1	1
453	3	540.195  	-13.4209  	-201.165  	-1	1	1
454	3	545.8  	-6.11631  	-171.611  	-1	1	1
455	3	555.645  	15.1618  	-152.911  	-1	1	1
456	3	570.651  	37.955  	-136.789  	-1	1	1
457	3	573.483  	67.4255  	-126.206  	-1	1	1
458	3	593.647  	89.1809  	-119.601  	-1	1	1
459	3	607.672  	115.195  	-128.181  	-1	1	1
460	3	612.411  	140.296  	-146.69  	-1	1	1
461	3	621.518  	161.645  	-168.381  	-1	1	1
462	3	628.279  	184.748  	-187.732  	-1	1	1
463	3	636.747  	208.787  	-205.846  	-1	1	1
464	3	618.051  	224.618  	-225.231  	-1	1	1
465	3	595.59  	238.629  	-241.151  	-1	1	1
466	3	567.937  	240.687  	-254.948  	-1	1	1
467	3	550.481  	238.054  	-281.725  	-1	1	1
468	3	526.428  	239.647  	-299.952  	-1	1	1
469	3	498.594  	238.235  	-310.459  	-1	1	1
470	3	476.091  	236.795  	-331.028  	-1	1	1
471	3	449.679  	230.14  	-343.521  	-1	1	1
472	3	426.391  	227.624  	-363.763  	-1	1	1
473	3	402.74  	239.977  	-378.294  	-1	1	1
474	3	378.108  	256.925  	-372.5  	-1	1	1
475	3	350.145  	266.447  	-365.943  	-1	1	1
476	3	322.764  	279.113  	-371.791  	-1	1	1
477	3	294.719  	284.555  	-363.202  	-1	1	1
478	3	266.123  	295.82  	-361.698  	-1	1	1
479	3	243.913  	315.978  	-357.958  	-1	1	1
480	3	223.673  	338.868  	-357.099  	-1	1	1
481	3	205.596  	362.887  	-354.076  	-1	1	1
482	3	192.816  	382.451  	-332.258  	-1	1	1
483	3	184.224  	399.572  	-307.898  	-1	1	1
484	3	186.694  	410.188  	-279.692  	-1	1	1
485	3	188.718  	403.28  	-249.884  	-1	1	1
486	3	200.987  	395.42  	-222.571  	-1	1	1
487	3	228.205  	383.088  	-214.135  	-1	1	1
488	3	256.727  	372.55  	-211.106  	-1	1	1
489	3	287.015  	363.559  	-210.206  	-1	1	1
490	3	310.448  	344.52  	-211.444  	-1	1	1
491	3	335.533  	333.222  	-225.264  	-1	1	1
492	3	350.417  	319.634  	-247.992  	-1	1	1
493	3	357.7  	314.506  	-277.861  	-1	1	1
494	3	371.219  	300.637  	-301.974  	-1	1	1
495	3	392.359  	288.92  	-321.083  	-1	1	1
496	3	422.182  	289.523  	-324.066  	-1	1	1
497	3	450.905  	291.314  	-334.016  	-1	1	1
498	3	481.872  	291.985  	-337.795  	-1	1	1
499	3	508.573  	304.056  	-344.887  	-1	1	1
500	3	533.909  	317.897  	-355.006  	-1	1	1
501	3	557.018  	337.808  	-355.274  	-1	1	1
502	3	555.189  	368.333  	-351.214  	-1	1	1
503	3	564.247  	397.51  	-347.74  	-1	1	1
504	3	571.311  	427.403  	-350.465  	-1	1	1
505	3	558.501  	454.785  	-357.231  	-1	1	1
506	3	544.605  	481.329  	-350.01  	-1	1	1
507	3	531.995  	507.152  	-336.996  	-1	1	1
508	3	520.975  	534.756  	-327.016  	-1	1	1
509	3	512.97  	560.53  	-313.62  	-1	1	1
510	3	506.963  	589.927  	-307.494  	-1	1	1
511	3	485.256  	611.57  	-309.765  	-1	1	1
512	3	467.7  	635.788  	-313.307  	-1	1	1
513	3	450.149  	660.806  	-313.687  	-1	1	1
514	3	427.869  	680.416  	-319.169  	-1	1	1
515	3	403.05  	691.509  	-332.146  	-1	1	1
516	3	378.948  	694.759  	-350.808  	-1	1	1
517	3	352.29  	687.748  	-362.896  	-1	1	1
518	3	328.171  	678.087  	-381.358  	-1	1	1
519	3	303.596  	678.439  	-399.369  	-1	1	1
520	3	284.154  	684.594  	-421.511  	-1	1	1
521	3	264.616  	684.285  	-444.333  	-1	1	1
522	3	247.548  	674.377  	-467.98  	-1	1	1
523	3	242.256  	656.257  	-491.812  	-1	1	1
524	3	253.679  	637.28  	-512.651  	-1	1	1
525	3	273.329  	615.685  	-523.714  	-1	1	1
526	3	298.594  	598.921  	-525.171  	-1	1	1
527	3	324.644  	582.91  	-528.087  	-1	1	1
528	3	344.192  	561.677  	-537.96  	-1	1	1
529	3	359.06  	537.722  	-546.122  	-1	1	1
530	3	375.851  	513.596  	-551.287  	-1	1	1
531	3	399.898  	496.329  	-557.186  	-1	1	1
532	3	421.141  	478.039  	-569.254  	-1	1	1
533	3	438.378  	453.08  	-569.165  	-1	1	1
534	3	449.84  	426.183  	-559.826  	-1	1	1
535	3	452.259  	404.855  	-537.295  	-1	1	1
536	3	437.452  	379.33  	-528.982  	-1	1	1
537	3	428.101  	350.558  	-524.247  	-1	1	1
538	3	409.611  	328.988  	-515.663  	-1	1	1
539	3	390.558  	310.858  	-501.729  	-1	1	1
540	3	376.294  	286.526  	-489.979  	-1	1	1
541	3	352.271  	275.34  	-474.349  	-1	1	1
542	3	322.897  	275.88  	-467.754  	-1	1	1
543	3	298.445  	288.637  	-455.331  	-1	1	1
544	3	275.92  	304.09  	-439.755  	-1	1	1
545	3	250.992  	320.783  	-430.389  	-1	1	1
546	3	231.112  	343.232  	-433.974  	-1	1	1
547	3	205.2  	359.209  	-434.318  	-1	1	1
548	3	195.338  	383.596  	-449.906  	-1	1	1
549	3	186.079  	402.362  	-473.128  	-1	1	1
550	3	184.338  	423.986  	-494.097  	-1	1	1
551	3	184.904  	441.798  	-519.038  	-1	1	1
552	3	182.869  	440.819  	-548.245  	-1	1	1
553	3	181.496  	454.636  	-576.001  	-1	1	1
554	3	196.564  	470.592  	-598.38  	-1	1	1
555	3	212.899  	490.463  	-614.807  	-1	1	1
556	3	236.835  	502.311  	-629.294  	-1	1	1
557	3	265.932  	507.128  	-640.643  	-1	1	1
558	3	274.451  	488.226  	-661.852  	-1	1	1
559	3	278.212  	468.986  	-685.194  	-1	1	1
560	3	277.012  	447.966  	-707.79  	-1	1	1
561	3	262.488  	428.765  	-727.628  	-1	1	1
562	3	236.729  	413.731  	-737.852  	-1	1	1
563	3	211.206  	397.571  	-742.622  	-1	1	1
564	3	181.785  	389.55  	-743.215  	-1	1	1
565	3	152.286  	394.142  	-743.944  	-1	1	1
566	3	123.556  	393.407  	-749.985  	-1	1	1
567	3	93.8544  	397.834  	-754.821  	-1	1	1
568	3	76.7281  	413.284  	-734.994  	-1	1	1
569	3	65.7621  	434.116  	-715.881  	-1	1	1
570	3	49.3746  	448.373  	-696.411  	-1	1	1
571	3	30.0817  	463.998  	-679.627  	-1	1	1
572	3	10.2789  	481.32  	-664.196  	-1	1	1
573	3	-13.7649  	491.555  	-647.303  	-1	1	1
574	3	-40.7705  	491.969  	-632.369  	-1	1	1
575	3	-60.7957  	486.697  	-610.168  	-1	1	1
576	3	-78.1268  	472.035  	-589.728  	-1	1	1
577	3	-84.2021  	455.14  	-565.011  	-1	1	1
578	3	-87.9595  	431.828  	-543.998  	-1	1	1
579	3	-80.4061  	404.804  	-532.524  	-1	1	1
580	3	-84.9743  	377.807  	-517.189  	-1	1	1
581	3	-69.8208  	353.53  	-504.097  	-1	1	1
582	3	-51.7089  	336.063  	-487.916  	-1	1	1
583	3	-32.1506  	318.573  	-471.2  	-1	1	1
584	3	-10.9397  	301.345  	-460.244  	-1	1	1
585	3	4.70218  	279.333  	-445.469  	-1	1	1
586	3	30.1837  	263.149  	-454.768  	-1	1	1
587	3	53.7732  	252.287  	-472.155  	-1	1	1
588	3	81.0338  	253.066  	-485.164  	-1	1	1
589	3	106.311  	255.161  	-502.931  	-1	1	1
590	3	128.148  	263.806  	-482.455  	-1	1	1
591	3	145.802  	274.928  	-460.072  	-1	1	1
592	3	164.025  	280.39  	-435.357  	-1	1	1
593	3	168.075  	296.109  	-410.441  	-1	1	1
594	3	157.731  	314.812  	-388.504  	-1	1	1
595	3	156.087  	334.608  	-364.935  	-1	1	1
596	3	136.069  	342.647  	-343.51  	-1	1	1
597	3	114.898  	354.465  	-323.675  	-1	1	1
598	3	87.2332  	350.926  	-310.642  	-1	1	1
599	3	63.2729  	332.078  	-310.159  	-1	1	1
600	3	44.255  	310.009  	-319.011  	-1	1	1
601	3	29.2041  	285.611  	-331.79  	-1	1	1
602	3	22.2828  	259.953  	-345.499  	-1	1	1
603	3	16.6964  	234.815  	-363.294  	-1	1	1
604	3	13.6157  	211.627  	-383.872  	-1	1	1
605	3	15.6958  	187.322  	-402.702  	-1	1	1
606	3	14.0586  	175.282  	-431.581  	-1	1	1
607	3	19.621  	163.483  	-459.962  	-1	1	1
608	3	25.3562  	155.445  	-487.488  	-1	1	1
609	3	38.0531  	140.349  	-509.764  	-1	1	1
610	3	53.7319  	134.061  	-535.69  	-1	1	1
611	3	77.555  	128.966  	-553.877  	-1	1	1
612	3	97.0071  	107.847  	-563.4  	-1	1	1
613	3	110.884  	86.5034  	-580.387  	-1	1	1
614	3	138.593  	73.6013  	-589.293  	-1	1	1
615	3	152.579  	46.9575  	-586.221  	-1	1	1
616	3	168.656  	22.1843  	-576.765  	-1	1	1
617	3	182.827  	-3.39859  	-569.123  	-1	1	1
618	3	195.747  	-27.7048  	-556.319  	-1	1	1
619	3	207.035  	-47.294  	-536.578  	-1	1	1
620	3	221.81  	-57.7702  	-512.712  	-1	1	1
621	3	225.633  	-61.1985  	-482.534  	-1	1	1
622	3	216.033  	-65.8914  	-452.928  	-1	1	1
623	3	198.867  	-69.7377  	-428.223  	-1	1	1
624	3	183.386  	-62.7064  	-403.528  	-1	1	1
625	3	168.467  	-55.536  	-376.161  	-1	1	1
626	3	162.039  	-39.8692  	-349.295  	-1	1	1
627	3	171.442  	-14.0725  	-333.714  	-1	1	1
628	3	181.012  	11.5943  	-319.365  	-1	1	1
629	3	193.783  	39.9429  	-316.523  	-1	1	1
630	3	205.253  	66.4006  	-307.85  	-1	1	1
631	3	214.144  	94.6131  	-303.883  	-1	1	1
632	3	224.527  	122.784  	-308.261  	-1	1	1
633	3	233.614  	152.165  	-308.714  	-1	1	1
634	3	246.948  	178.873  	-314.223  	-1	1	1
635	3	263.714  	205.339  	-315.822  	-1	1	1
636	3	282.414  	223.43  	-331.111  	-1	1	1
637	3	302.978  	232.463  	-351.879  	-1	1	1
638	3	318.662  	234.097  	-378.1  	-1	1	1
639	3	338.719  	235.798  	-401.223  	-1	1	1
640	3	366.348  	227.565  	-410.267  	-1	1	1
641	3	387.368  	206.77  	-417.143  	-1	1	1
642	3	412.361  	191.057  	-422.227  	-1	1	1
643	3	442.707  	186.009  	-425.842  	-1	1	1
644	3	469.311  	177.995  	-414.573  	-1	1	1
645	3	489.656  	158.917  	-401.365  	-1	1	1
646	3	496.79  	130.015  	-399.822  	-1	1	1
647	3	506.733  	101.992  	-394.08  	-1	1	1
648	3	518.955  	76.5722  	-383.527  	-1	1	1
649	3	539.296  	62.6106  	-363.995  	-1	1	1
650	3	547.174  	42.6804  	-343.157  	-1	1	1
651	3	544.922  	19.2942  	-325.579  	-1	1	1
652	3	545.807  	-8.83718  	-312.794  	-1	1	1
653	3	542.765  	-38.3585  	-303.337  	-1	1	1
654	3	535.257  	-68.5967  	-306.007  	-1	1	1
655	3	538.149  	-97.8659  	-315.024  	-1	1	1
656	3	538.847  	-117.212  	-338.364  	-1	1	1
657	3	532.893  	-135.334  	-360.768  	-1	1	1
658	3	524.046  	-148.43  	-387.039  	-1	1	1
659	3	518.419  	-161.905  	-413.627  	-1	1	1
660	3	513.975  	-167.789  	-442.936  	-1	1	1
661	3	522.445  	-173.268  	-472.275  	-1	1	1
662	3	546.931  	-183.475  	-487.424  	-1	1	1
663	3	563.645  	-201.681  	-504.459  	-1	1	1
664	3	589.451  	-207.003  	-519.674  	-1	1	1
665	3	609.385  	-210.321  	-542.352  	-1	1	1
666	3	633.769  	-191.347  	-539.149  	-1	1	1
667	3	651.888  	-168.252  	-533.531  	-1	1	1
668	3	658.323  	-138.857  	-524.968  	-1	1	1
669	3	676.206  	-116.509  	-516.648  	-1	1	1
670	3	691.581  	-92.8261  	-507.515  	-1	1	1
671	3	697.563  	-63.9872  	-502.554  	-1	1	1
672	3	702.245  	-35.866  	-490.207  	-1	1	1
673	3	710.735  	-15.6107  	-468.114  	-1	1	1
674	3	720.536  	2.15854  	-445.732  	-1	1	1
675	3	730.203  	22.5025  	-425.745  	-1	1	1
676	3	741.272  	32.6023  	-399.397  	-1	1	1
677	3	739.935  	44.1824  	-370.876  	-1	1	1
678	3	730.662  	55.8676  	-344.224  	-1	1	1
679	3	721.578  	64.1437  	-317.006  	-1	1	1
680	3	706.364  	62.0985  	-290.354  	-1	1	1
681	3	684.46  	54.8439  	-269.428  	-1	1	1
682	3	659.983  	44.0649  	-255.468  	-1	1	1
683	3	635.032  	50.1349  	-237.049  	-1	1	1
684	3	609.369  	60.5254  	-222.721  	-1	1	1